 Entering Link 1 = D:\G09W\l1.exe PID=     13180.
  
 Copyright (c) 1988,1990,1992,1993,1995,1998,2003,2009,2013,
            Gaussian, Inc.  All Rights Reserved.
  
 This is part of the Gaussian(R) 09 program.  It is based on
 the Gaussian(R) 03 system (copyright 2003, Gaussian, Inc.),
 the Gaussian(R) 98 system (copyright 1998, Gaussian, Inc.),
 the Gaussian(R) 94 system (copyright 1995, Gaussian, Inc.),
 the Gaussian 92(TM) system (copyright 1992, Gaussian, Inc.),
 the Gaussian 90(TM) system (copyright 1990, Gaussian, Inc.),
 the Gaussian 88(TM) system (copyright 1988, Gaussian, Inc.),
 the Gaussian 86(TM) system (copyright 1986, Carnegie Mellon
 University), and the Gaussian 82(TM) system (copyright 1983,
 Carnegie Mellon University). Gaussian is a federally registered
 trademark of Gaussian, Inc.
  
 This software contains proprietary and confidential information,
 including trade secrets, belonging to Gaussian, Inc.
  
 This software is provided under written license and may be
 used, copied, transmitted, or stored only in accord with that
 written license.
  
 The following legend is applicable only to US Government
 contracts under FAR:
  
                    RESTRICTED RIGHTS LEGEND
  
 Use, reproduction and disclosure by the US Government is
 subject to restrictions as set forth in subparagraphs (a)
 and (c) of the Commercial Computer Software - Restricted
 Rights clause in FAR 52.227-19.
  
 Gaussian, Inc.
 340 Quinnipiac St., Bldg. 40, Wallingford CT 06492
  
  
 ---------------------------------------------------------------
 Warning -- This program may not be used in any manner that
 competes with the business of Gaussian, Inc. or will provide
 assistance to any competitor of Gaussian, Inc.  The licensee
 of this program is prohibited from giving any competitor of
 Gaussian, Inc. access to this program.  By using this program,
 the user acknowledges that Gaussian, Inc. is engaged in the
 business of creating and licensing software in the field of
 computational chemistry and represents and warrants to the
 licensee that it is not a competitor of Gaussian, Inc. and that
 it will not use this program in any manner prohibited above.
 ---------------------------------------------------------------
  

 Cite this work as:
 Gaussian 09, Revision D.01,
 M. J. Frisch, G. W. Trucks, H. B. Schlegel, G. E. Scuseria, 
 M. A. Robb, J. R. Cheeseman, G. Scalmani, V. Barone, B. Mennucci, 
 G. A. Petersson, H. Nakatsuji, M. Caricato, X. Li, H. P. Hratchian, 
 A. F. Izmaylov, J. Bloino, G. Zheng, J. L. Sonnenberg, M. Hada, 
 M. Ehara, K. Toyota, R. Fukuda, J. Hasegawa, M. Ishida, T. Nakajima, 
 Y. Honda, O. Kitao, H. Nakai, T. Vreven, J. A. Montgomery, Jr., 
 J. E. Peralta, F. Ogliaro, M. Bearpark, J. J. Heyd, E. Brothers, 
 K. N. Kudin, V. N. Staroverov, T. Keith, R. Kobayashi, J. Normand, 
 K. Raghavachari, A. Rendell, J. C. Burant, S. S. Iyengar, J. Tomasi, 
 M. Cossi, N. Rega, J. M. Millam, M. Klene, J. E. Knox, J. B. Cross, 
 V. Bakken, C. Adamo, J. Jaramillo, R. Gomperts, R. E. Stratmann, 
 O. Yazyev, A. J. Austin, R. Cammi, C. Pomelli, J. W. Ochterski, 
 R. L. Martin, K. Morokuma, V. G. Zakrzewski, G. A. Voth, 
 P. Salvador, J. J. Dannenberg, S. Dapprich, A. D. Daniels, 
 O. Farkas, J. B. Foresman, J. V. Ortiz, J. Cioslowski, 
 and D. J. Fox, Gaussian, Inc., Wallingford CT, 2013.
 
 ******************************************
 Gaussian 09:  IA32W-G09RevD.01 24-Apr-2013
                28-May-2023 
 ******************************************
 %chk=D:\Output - Gauss\water-scan.chk
 ---------------------------------
 # scan hf/3-21g geom=connectivity
 ---------------------------------
 1/38=1,57=2,60=1/1,8;
 2/12=2,17=6,18=5,29=3,40=1/2;
 3/5=5,11=9,16=1,25=1,30=1/1,2,3;
 4//1;
 5/5=2,38=5/2;
 6/7=2,8=2,9=2,10=2,18=1,28=1/1;
 1/60=1/8(1);
 99/9=1/99;
 2/29=3/2;
 3/5=5,11=9,16=1,25=1,30=1/1,2,3;
 4/5=5,16=3,69=1/1;
 5/5=2,38=5/2;
 1/60=1/8(-4);
 99/9=1/99;
 ----------------------------
 Rigid Scan of water molecule
 ----------------------------
 Symbolic Z-matrix:
 Charge =  0 Multiplicity = 1
 O
 H                    1    B1
 H                    1    B2       2    A1
       Variables:
  B1                    0.8    Scan 10    0.05   
  B2                    0.96                     
  A1                   90.     Scan 24    5.     
 
 Scan the potential surface.
 Variable   Value     No. Steps Step-Size
 -------- ----------- --------- ---------
     1       0.800000      10      0.0500
     3      90.000000      24      5.0000
 A total of    275 points will be computed.
 ---------------------------------------------------------------------------------------------------
                            Z-MATRIX (ANGSTROMS AND DEGREES)
   CD    Cent   Atom    N1       Length/X        N2       Alpha/Y        N3        Beta/Z          J
 ---------------------------------------------------------------------------------------------------
      1      1  O 
      2      2  H        1   0.800000(     1)
      3      3  H        1   0.960000(     2)      2   90.000(     3)
 ---------------------------------------------------------------------------------------------------
                         Z-Matrix orientation:                         
 ---------------------------------------------------------------------
 Center     Atomic      Atomic             Coordinates (Angstroms)
 Number     Number       Type             X           Y           Z
 ---------------------------------------------------------------------
      1          8           0        0.000000    0.000000    0.000000
      2          1           0        0.000000    0.000000    0.800000
      3          1           0        0.960000    0.000000    0.000000
 ---------------------------------------------------------------------
                    Distance matrix (angstroms):
                    1          2          3
     1  O    0.000000
     2  H    0.800000   0.000000
     3  H    0.960000   1.249640   0.000000
 Stoichiometry    H2O
 Framework group  CS[SG(H2O)]
 Deg. of freedom     3
 Full point group                 CS      NOp   2
 Largest Abelian subgroup         CS      NOp   2
 Largest concise Abelian subgroup C1      NOp   1
                         Standard orientation:                         
 ---------------------------------------------------------------------
 Center     Atomic      Atomic             Coordinates (Angstroms)
 Number     Number       Type             X           Y           Z
 ---------------------------------------------------------------------
      1          8           0        0.000000    0.124964    0.000000
      2          1           0        0.614577   -0.387184    0.000000
      3          1           0       -0.614577   -0.612528    0.000000
 ---------------------------------------------------------------------
 Rotational constants (GHZ):    839.3781542    571.9122607    340.1501581
 Standard basis: 3-21G (6D, 7F)
 There are    11 symmetry adapted cartesian basis functions of A'  symmetry.
 There are     2 symmetry adapted cartesian basis functions of A"  symmetry.
 There are    11 symmetry adapted basis functions of A'  symmetry.
 There are     2 symmetry adapted basis functions of A"  symmetry.
    13 basis functions,    21 primitive gaussians,    13 cartesian basis functions
     5 alpha electrons        5 beta electrons
       nuclear repulsion energy        10.1250458995 Hartrees.
 NAtoms=    3 NActive=    3 NUniq=    3 SFac= 1.00D+00 NAtFMM=   60 NAOKFM=F Big=F
 Integral buffers will be    262144 words long.
 Raffenetti 1 integral format.
 Two-electron integral symmetry is turned on.
 One-electron integrals computed using PRISM.
 NBasis=    13 RedAO= T EigKep=  1.17D-01  NBF=    11     2
 NBsUse=    13 1.00D-06 EigRej= -1.00D+00 NBFU=    11     2
 ExpMin= 1.83D-01 ExpMax= 3.22D+02 ExpMxC= 3.22D+02 IAcc=1 IRadAn=         1 AccDes= 0.00D+00
 Harris functional with IExCor=  205 and IRadAn=       1 diagonalized for initial guess.
 HarFok:  IExCor=  205 AccDes= 0.00D+00 IRadAn=         1 IDoV= 1 UseB2=F ITyADJ=14
 ICtDFT=  3500011 ScaDFX=  1.000000  1.000000  1.000000  1.000000
 FoFCou: FMM=F IPFlag=           0 FMFlag=      100000 FMFlg1=           0
         NFxFlg=           0 DoJE=T BraDBF=F KetDBF=T FulRan=T
         wScrn=  0.000000 ICntrl=     500 IOpCl=  0 I1Cent=   200000004 NGrid=           0
         NMat0=    1 NMatS0=      1 NMatT0=    0 NMatD0=    1 NMtDS0=    0 NMtDT0=    0
 Petite list used in FoFCou.
 Initial guess orbital symmetries:
       Occupied  (A') (A') (A') (A') (A")
       Virtual   (A') (A') (A') (A') (A") (A') (A') (A')
 The electronic state of the initial guess is 1-A'.
 Keep R1 ints in memory in symmetry-blocked form, NReq=826359.
 Requested convergence on RMS density matrix=1.00D-08 within 128 cycles.
 Requested convergence on MAX density matrix=1.00D-06.
 Requested convergence on             energy=1.00D-06.
 No special actions if energy rises.
 SCF Done:  E(RHF) =  -75.5306755273     A.U. after   10 cycles
            NFock= 10  Conv=0.21D-08     -V/T= 1.9951

 **********************************************************************

            Population analysis using the SCF density.

 **********************************************************************

 Orbital symmetries:
       Occupied  (A') (A') (A') (A') (A")
       Virtual   (A') (A') (A') (A') (A") (A') (A') (A')
 The electronic state is 1-A'.
 Alpha  occ. eigenvalues --  -20.42116  -1.40207  -0.69999  -0.57697  -0.49193
 Alpha virt. eigenvalues --    0.27077   0.38699   1.15134   1.55559   1.77647
 Alpha virt. eigenvalues --    1.85428   2.02062   3.15624
          Condensed to atoms (all electrons):
               1          2          3
     1  O    8.124712   0.281661   0.280932
     2  H    0.281661   0.436380  -0.072792
     3  H    0.280932  -0.072792   0.459304
 Mulliken charges:
               1
     1  O   -0.687306
     2  H    0.354750
     3  H    0.332555
 Sum of Mulliken charges =   0.00000
 Mulliken charges with hydrogens summed into heavy atoms:
               1
     1  O    0.000000
 Electronic spatial extent (au):  <R**2>=             17.6024
 Charge=              0.0000 electrons
 Dipole moment (field-independent basis, Debye):
    X=              0.2413    Y=             -2.5960    Z=              0.0000  Tot=              2.6072
 Quadrupole moment (field-independent basis, Debye-Ang):
   XX=             -4.8348   YY=             -5.4455   ZZ=             -6.6450
   XY=              0.2193   XZ=              0.0000   YZ=              0.0000
 Traceless Quadrupole moment (field-independent basis, Debye-Ang):
   XX=              0.8070   YY=              0.1963   ZZ=             -1.0032
   XY=              0.2193   XZ=              0.0000   YZ=              0.0000
 Octapole moment (field-independent basis, Debye-Ang**2):
  XXX=              0.3379  YYY=             -1.5649  ZZZ=              0.0000  XYY=             -0.1034
  XXY=             -0.8391  XXZ=              0.0000  XZZ=              0.1315  YZZ=             -0.3935
  YYZ=              0.0000  XYZ=              0.0000
 Hexadecapole moment (field-independent basis, Debye-Ang**3):
 XXXX=             -5.0446 YYYY=             -5.1383 ZZZZ=             -4.0102 XXXY=             -0.2031
 XXXZ=              0.0000 YYYX=             -0.0931 YYYZ=              0.0000 ZZZX=              0.0000
 ZZZY=              0.0000 XXYY=             -1.4389 XXZZ=             -1.5902 YYZZ=             -1.5976
 XXYZ=              0.0000 YYXZ=              0.0000 ZZXY=             -0.1034
 N-N= 1.012504589948D+01 E-N=-2.000299596341D+02  KE= 7.590274823520D+01
 Symmetry A'   KE= 7.124055334511D+01
 Symmetry A"   KE= 4.662194890090D+00
 Variable Step   Value    
 -------- ---- -----------
     1       1    1.606267
     3       0    1.570796
 ---------------------------------------------------------------------------------------------------
                            Z-MATRIX (ANGSTROMS AND DEGREES)
   CD    Cent   Atom    N1       Length/X        N2       Alpha/Y        N3        Beta/Z          J
 ---------------------------------------------------------------------------------------------------
      1      1  O 
      2      2  H        1   0.850000(     1)
      3      3  H        1   0.960000(     2)      2   90.000(     3)
 ---------------------------------------------------------------------------------------------------
                         Z-Matrix orientation:                         
 ---------------------------------------------------------------------
 Center     Atomic      Atomic             Coordinates (Angstroms)
 Number     Number       Type             X           Y           Z
 ---------------------------------------------------------------------
      1          8           0        0.000000    0.000000    0.000000
      2          1           0        0.000000    0.000000    0.850000
      3          1           0        0.960000    0.000000    0.000000
 ---------------------------------------------------------------------
                    Distance matrix (angstroms):
                    1          2          3
     1  O    0.000000
     2  H    0.850000   0.000000
     3  H    0.960000   1.282225   0.000000
 Stoichiometry    H2O
 Framework group  CS[SG(H2O)]
 Deg. of freedom     3
 Full point group                 CS      NOp   2
 Largest Abelian subgroup         CS      NOp   2
 Largest concise Abelian subgroup C1      NOp   1
                         Standard orientation:                         
 ---------------------------------------------------------------------
 Center     Atomic      Atomic             Coordinates (Angstroms)
 Number     Number       Type             X           Y           Z
 ---------------------------------------------------------------------
      1          8           0        0.000000    0.128222    0.000000
      2          1           0        0.636394   -0.435251    0.000000
      3          1           0       -0.636394   -0.590528    0.000000
 ---------------------------------------------------------------------
 Rotational constants (GHZ):    746.6959339    569.4890858    323.0816172
 Standard basis: 3-21G (6D, 7F)
 There are    11 symmetry adapted cartesian basis functions of A'  symmetry.
 There are     2 symmetry adapted cartesian basis functions of A"  symmetry.
 There are    11 symmetry adapted basis functions of A'  symmetry.
 There are     2 symmetry adapted basis functions of A"  symmetry.
    13 basis functions,    21 primitive gaussians,    13 cartesian basis functions
     5 alpha electrons        5 beta electrons
       nuclear repulsion energy         9.8030038674 Hartrees.
 NAtoms=    3 NActive=    3 NUniq=    3 SFac= 1.00D+00 NAtFMM=   60 NAOKFM=F Big=F
 Integral buffers will be    262144 words long.
 Raffenetti 1 integral format.
 Two-electron integral symmetry is turned on.
 One-electron integrals computed using PRISM.
 NBasis=    13 RedAO= T EigKep=  1.27D-01  NBF=    11     2
 NBsUse=    13 1.00D-06 EigRej= -1.00D+00 NBFU=    11     2
 Initial guess from the checkpoint file:  "D:\Output - Gauss\water-scan.chk"
 B after Tr=     0.000000    0.000000    0.000000
         Rot=    0.999861    0.000000    0.000000    0.016645 Ang=   1.91 deg.
 Initial guess orbital symmetries:
       Occupied  (A') (A') (A') (A') (A")
       Virtual   (A') (A') (A') (A') (A') (A') (A') (A")
 ExpMin= 1.83D-01 ExpMax= 3.22D+02 ExpMxC= 3.22D+02 IAcc=1 IRadAn=         1 AccDes= 0.00D+00
 Harris functional with IExCor=  205 and IRadAn=       1 diagonalized for initial guess.
 HarFok:  IExCor=  205 AccDes= 0.00D+00 IRadAn=         1 IDoV= 1 UseB2=F ITyADJ=14
 ICtDFT=  3500011 ScaDFX=  1.000000  1.000000  1.000000  1.000000
 FoFCou: FMM=F IPFlag=           0 FMFlag=      100000 FMFlg1=           0
         NFxFlg=           0 DoJE=T BraDBF=F KetDBF=T FulRan=T
         wScrn=  0.000000 ICntrl=     500 IOpCl=  0 I1Cent=   200000004 NGrid=           0
         NMat0=    1 NMatS0=      1 NMatT0=    0 NMatD0=    1 NMtDS0=    0 NMtDT0=    0
 Petite list used in FoFCou.
 Keep R1 ints in memory in symmetry-blocked form, NReq=826359.
 Requested convergence on RMS density matrix=1.00D-08 within 128 cycles.
 Requested convergence on MAX density matrix=1.00D-06.
 Requested convergence on             energy=1.00D-06.
 No special actions if energy rises.
 SCF Done:  E(RHF) =  -75.5548185292     A.U. after    9 cycles
            NFock=  9  Conv=0.85D-08     -V/T= 1.9974
 Variable Step   Value    
 -------- ---- -----------
     1       2    1.700754
     3       0    1.570796
 ---------------------------------------------------------------------------------------------------
                            Z-MATRIX (ANGSTROMS AND DEGREES)
   CD    Cent   Atom    N1       Length/X        N2       Alpha/Y        N3        Beta/Z          J
 ---------------------------------------------------------------------------------------------------
      1      1  O 
      2      2  H        1   0.900000(     1)
      3      3  H        1   0.960000(     2)      2   90.000(     3)
 ---------------------------------------------------------------------------------------------------
                         Z-Matrix orientation:                         
 ---------------------------------------------------------------------
 Center     Atomic      Atomic             Coordinates (Angstroms)
 Number     Number       Type             X           Y           Z
 ---------------------------------------------------------------------
      1          8           0        0.000000    0.000000    0.000000
      2          1           0        0.000000    0.000000    0.900000
      3          1           0        0.960000    0.000000    0.000000
 ---------------------------------------------------------------------
                    Distance matrix (angstroms):
                    1          2          3
     1  O    0.000000
     2  H    0.900000   0.000000
     3  H    0.960000   1.315903   0.000000
 Stoichiometry    H2O
 Framework group  CS[SG(H2O)]
 Deg. of freedom     3
 Full point group                 CS      NOp   2
 Largest Abelian subgroup         CS      NOp   2
 Largest concise Abelian subgroup C1      NOp   1
                         Standard orientation:                         
 ---------------------------------------------------------------------
 Center     Atomic      Atomic             Coordinates (Angstroms)
 Number     Number       Type             X           Y           Z
 ---------------------------------------------------------------------
      1          8           0        0.000000    0.131590    0.000000
      2          1           0        0.656583   -0.483957    0.000000
      3          1           0       -0.656583   -0.568765    0.000000
 ---------------------------------------------------------------------
 Rotational constants (GHZ):    672.3259873    564.1597860    306.7558829
 Standard basis: 3-21G (6D, 7F)
 There are    11 symmetry adapted cartesian basis functions of A'  symmetry.
 There are     2 symmetry adapted cartesian basis functions of A"  symmetry.
 There are    11 symmetry adapted basis functions of A'  symmetry.
 There are     2 symmetry adapted basis functions of A"  symmetry.
    13 basis functions,    21 primitive gaussians,    13 cartesian basis functions
     5 alpha electrons        5 beta electrons
       nuclear repulsion energy         9.5157475451 Hartrees.
 NAtoms=    3 NActive=    3 NUniq=    3 SFac= 1.00D+00 NAtFMM=   60 NAOKFM=F Big=F
 Integral buffers will be    262144 words long.
 Raffenetti 1 integral format.
 Two-electron integral symmetry is turned on.
 One-electron integrals computed using PRISM.
 NBasis=    13 RedAO= T EigKep=  1.37D-01  NBF=    11     2
 NBsUse=    13 1.00D-06 EigRej= -1.00D+00 NBFU=    11     2
 Initial guess from the checkpoint file:  "D:\Output - Gauss\water-scan.chk"
 B after Tr=     0.000000    0.000000    0.000000
         Rot=    0.999875    0.000000    0.000000    0.015806 Ang=   1.81 deg.
 Initial guess orbital symmetries:
       Occupied  (A') (A') (A') (A') (A")
       Virtual   (A') (A') (A') (A') (A') (A') (A') (A")
 ExpMin= 1.83D-01 ExpMax= 3.22D+02 ExpMxC= 3.22D+02 IAcc=1 IRadAn=         1 AccDes= 0.00D+00
 Harris functional with IExCor=  205 and IRadAn=       1 diagonalized for initial guess.
 HarFok:  IExCor=  205 AccDes= 0.00D+00 IRadAn=         1 IDoV= 1 UseB2=F ITyADJ=14
 ICtDFT=  3500011 ScaDFX=  1.000000  1.000000  1.000000  1.000000
 FoFCou: FMM=F IPFlag=           0 FMFlag=      100000 FMFlg1=           0
         NFxFlg=           0 DoJE=T BraDBF=F KetDBF=T FulRan=T
         wScrn=  0.000000 ICntrl=     500 IOpCl=  0 I1Cent=   200000004 NGrid=           0
         NMat0=    1 NMatS0=      1 NMatT0=    0 NMatD0=    1 NMtDS0=    0 NMtDT0=    0
 Petite list used in FoFCou.
 Keep R1 ints in memory in symmetry-blocked form, NReq=826359.
 Requested convergence on RMS density matrix=1.00D-08 within 128 cycles.
 Requested convergence on MAX density matrix=1.00D-06.
 Requested convergence on             energy=1.00D-06.
 No special actions if energy rises.
 SCF Done:  E(RHF) =  -75.5685167660     A.U. after    9 cycles
            NFock=  9  Conv=0.89D-08     -V/T= 1.9994
 Variable Step   Value    
 -------- ---- -----------
     1       3    1.795240
     3       0    1.570796
 ---------------------------------------------------------------------------------------------------
                            Z-MATRIX (ANGSTROMS AND DEGREES)
   CD    Cent   Atom    N1       Length/X        N2       Alpha/Y        N3        Beta/Z          J
 ---------------------------------------------------------------------------------------------------
      1      1  O 
      2      2  H        1   0.950000(     1)
      3      3  H        1   0.960000(     2)      2   90.000(     3)
 ---------------------------------------------------------------------------------------------------
                         Z-Matrix orientation:                         
 ---------------------------------------------------------------------
 Center     Atomic      Atomic             Coordinates (Angstroms)
 Number     Number       Type             X           Y           Z
 ---------------------------------------------------------------------
      1          8           0        0.000000    0.000000    0.000000
      2          1           0        0.000000    0.000000    0.950000
      3          1           0        0.960000    0.000000    0.000000
 ---------------------------------------------------------------------
                    Distance matrix (angstroms):
                    1          2          3
     1  O    0.000000
     2  H    0.950000   0.000000
     3  H    0.960000   1.350592   0.000000
 Stoichiometry    H2O
 Framework group  CS[SG(H2O)]
 Deg. of freedom     3
 Full point group                 CS      NOp   2
 Largest Abelian subgroup         CS      NOp   2
 Largest concise Abelian subgroup C1      NOp   1
                         Standard orientation:                         
 ---------------------------------------------------------------------
 Center     Atomic      Atomic             Coordinates (Angstroms)
 Number     Number       Type             X           Y           Z
 ---------------------------------------------------------------------
      1          8           0        0.000000    0.135059    0.000000
      2          1           0        0.675259   -0.533166    0.000000
      3          1           0       -0.675259   -0.547308    0.000000
 ---------------------------------------------------------------------
 Rotational constants (GHZ):    619.6996115    549.3366929    291.2003108
 Standard basis: 3-21G (6D, 7F)
 There are    11 symmetry adapted cartesian basis functions of A'  symmetry.
 There are     2 symmetry adapted cartesian basis functions of A"  symmetry.
 There are    11 symmetry adapted basis functions of A'  symmetry.
 There are     2 symmetry adapted basis functions of A"  symmetry.
    13 basis functions,    21 primitive gaussians,    13 cartesian basis functions
     5 alpha electrons        5 beta electrons
       nuclear repulsion energy         9.2578503633 Hartrees.
 NAtoms=    3 NActive=    3 NUniq=    3 SFac= 1.00D+00 NAtFMM=   60 NAOKFM=F Big=F
 Integral buffers will be    262144 words long.
 Raffenetti 1 integral format.
 Two-electron integral symmetry is turned on.
 One-electron integrals computed using PRISM.
 NBasis=    13 RedAO= T EigKep=  1.46D-01  NBF=    11     2
 NBsUse=    13 1.00D-06 EigRej= -1.00D+00 NBFU=    11     2
 Initial guess from the checkpoint file:  "D:\Output - Gauss\water-scan.chk"
 B after Tr=     0.000000    0.000000    0.000000
         Rot=    0.999887    0.000000    0.000000    0.015006 Ang=   1.72 deg.
 Initial guess orbital symmetries:
       Occupied  (A') (A') (A') (A') (A")
       Virtual   (A') (A') (A') (A') (A') (A') (A') (A")
 ExpMin= 1.83D-01 ExpMax= 3.22D+02 ExpMxC= 3.22D+02 IAcc=1 IRadAn=         1 AccDes= 0.00D+00
 Harris functional with IExCor=  205 and IRadAn=       1 diagonalized for initial guess.
 HarFok:  IExCor=  205 AccDes= 0.00D+00 IRadAn=         1 IDoV= 1 UseB2=F ITyADJ=14
 ICtDFT=  3500011 ScaDFX=  1.000000  1.000000  1.000000  1.000000
 FoFCou: FMM=F IPFlag=           0 FMFlag=      100000 FMFlg1=           0
         NFxFlg=           0 DoJE=T BraDBF=F KetDBF=T FulRan=T
         wScrn=  0.000000 ICntrl=     500 IOpCl=  0 I1Cent=   200000004 NGrid=           0
         NMat0=    1 NMatS0=      1 NMatT0=    0 NMatD0=    1 NMtDS0=    0 NMtDT0=    0
 Petite list used in FoFCou.
 Keep R1 ints in memory in symmetry-blocked form, NReq=826359.
 Requested convergence on RMS density matrix=1.00D-08 within 128 cycles.
 Requested convergence on MAX density matrix=1.00D-06.
 Requested convergence on             energy=1.00D-06.
 No special actions if energy rises.
 SCF Done:  E(RHF) =  -75.5746666972     A.U. after    9 cycles
            NFock=  9  Conv=0.94D-08     -V/T= 2.0009
 Variable Step   Value    
 -------- ---- -----------
     1       4    1.889726
     3       0    1.570796
 ---------------------------------------------------------------------------------------------------
                            Z-MATRIX (ANGSTROMS AND DEGREES)
   CD    Cent   Atom    N1       Length/X        N2       Alpha/Y        N3        Beta/Z          J
 ---------------------------------------------------------------------------------------------------
      1      1  O 
      2      2  H        1   1.000000(     1)
      3      3  H        1   0.960000(     2)      2   90.000(     3)
 ---------------------------------------------------------------------------------------------------
                         Z-Matrix orientation:                         
 ---------------------------------------------------------------------
 Center     Atomic      Atomic             Coordinates (Angstroms)
 Number     Number       Type             X           Y           Z
 ---------------------------------------------------------------------
      1          8           0        0.000000    0.000000    0.000000
      2          1           0        0.000000    0.000000    1.000000
      3          1           0        0.960000    0.000000    0.000000
 ---------------------------------------------------------------------
                    Distance matrix (angstroms):
                    1          2          3
     1  O    0.000000
     2  H    1.000000   0.000000
     3  H    0.960000   1.386218   0.000000
 Stoichiometry    H2O
 Framework group  CS[SG(H2O)]
 Deg. of freedom     3
 Full point group                 CS      NOp   2
 Largest Abelian subgroup         CS      NOp   2
 Largest concise Abelian subgroup C1      NOp   1
                         Standard orientation:                         
 ---------------------------------------------------------------------
 Center     Atomic      Atomic             Coordinates (Angstroms)
 Number     Number       Type             X           Y           Z
 ---------------------------------------------------------------------
      1          8           0        0.000000    0.138622    0.000000
      2          1           0        0.692532   -0.582766    0.000000
      3          1           0       -0.692532   -0.526209    0.000000
 ---------------------------------------------------------------------
 Rotational constants (GHZ):    595.6910317    515.7580098    276.4251077
 Standard basis: 3-21G (6D, 7F)
 There are    11 symmetry adapted cartesian basis functions of A'  symmetry.
 There are     2 symmetry adapted cartesian basis functions of A"  symmetry.
 There are    11 symmetry adapted basis functions of A'  symmetry.
 There are     2 symmetry adapted basis functions of A"  symmetry.
    13 basis functions,    21 primitive gaussians,    13 cartesian basis functions
     5 alpha electrons        5 beta electrons
       nuclear repulsion energy         9.0249694692 Hartrees.
 NAtoms=    3 NActive=    3 NUniq=    3 SFac= 1.00D+00 NAtFMM=   60 NAOKFM=F Big=F
 Integral buffers will be    262144 words long.
 Raffenetti 1 integral format.
 Two-electron integral symmetry is turned on.
 One-electron integrals computed using PRISM.
 NBasis=    13 RedAO= T EigKep=  1.54D-01  NBF=    11     2
 NBsUse=    13 1.00D-06 EigRej= -1.00D+00 NBFU=    11     2
 Initial guess from the checkpoint file:  "D:\Output - Gauss\water-scan.chk"
 B after Tr=     0.000000    0.000000    0.000000
         Rot=    0.999899    0.000000    0.000000    0.014245 Ang=   1.63 deg.
 Initial guess orbital symmetries:
       Occupied  (A') (A') (A') (A') (A")
       Virtual   (A') (A') (A') (A') (A') (A') (A') (A")
 ExpMin= 1.83D-01 ExpMax= 3.22D+02 ExpMxC= 3.22D+02 IAcc=1 IRadAn=         1 AccDes= 0.00D+00
 Harris functional with IExCor=  205 and IRadAn=       1 diagonalized for initial guess.
 HarFok:  IExCor=  205 AccDes= 0.00D+00 IRadAn=         1 IDoV= 1 UseB2=F ITyADJ=14
 ICtDFT=  3500011 ScaDFX=  1.000000  1.000000  1.000000  1.000000
 FoFCou: FMM=F IPFlag=           0 FMFlag=      100000 FMFlg1=           0
         NFxFlg=           0 DoJE=T BraDBF=F KetDBF=T FulRan=T
         wScrn=  0.000000 ICntrl=     500 IOpCl=  0 I1Cent=   200000004 NGrid=           0
         NMat0=    1 NMatS0=      1 NMatT0=    0 NMatD0=    1 NMtDS0=    0 NMtDT0=    0
 Petite list used in FoFCou.
 Keep R1 ints in memory in symmetry-blocked form, NReq=826359.
 Requested convergence on RMS density matrix=1.00D-08 within 128 cycles.
 Requested convergence on MAX density matrix=1.00D-06.
 Requested convergence on             energy=1.00D-06.
 No special actions if energy rises.
 SCF Done:  E(RHF) =  -75.5753707454     A.U. after    9 cycles
            NFock=  9  Conv=0.10D-07     -V/T= 2.0022
 Variable Step   Value    
 -------- ---- -----------
     1       5    1.984212
     3       0    1.570796
 ---------------------------------------------------------------------------------------------------
                            Z-MATRIX (ANGSTROMS AND DEGREES)
   CD    Cent   Atom    N1       Length/X        N2       Alpha/Y        N3        Beta/Z          J
 ---------------------------------------------------------------------------------------------------
      1      1  O 
      2      2  H        1   1.050000(     1)
      3      3  H        1   0.960000(     2)      2   90.000(     3)
 ---------------------------------------------------------------------------------------------------
                         Z-Matrix orientation:                         
 ---------------------------------------------------------------------
 Center     Atomic      Atomic             Coordinates (Angstroms)
 Number     Number       Type             X           Y           Z
 ---------------------------------------------------------------------
      1          8           0        0.000000    0.000000    0.000000
      2          1           0        0.000000    0.000000    1.050000
      3          1           0        0.960000    0.000000    0.000000
 ---------------------------------------------------------------------
                    Distance matrix (angstroms):
                    1          2          3
     1  O    0.000000
     2  H    1.050000   0.000000
     3  H    0.960000   1.422709   0.000000
 Stoichiometry    H2O
 Framework group  CS[SG(H2O)]
 Deg. of freedom     3
 Full point group                 CS      NOp   2
 Largest Abelian subgroup         CS      NOp   2
 Largest concise Abelian subgroup C1      NOp   1
                         Standard orientation:                         
 ---------------------------------------------------------------------
 Center     Atomic      Atomic             Coordinates (Angstroms)
 Number     Number       Type             X           Y           Z
 ---------------------------------------------------------------------
      1          8           0        0.000000    0.142271    0.000000
      2          1           0        0.708508   -0.632659    0.000000
      3          1           0       -0.708508   -0.505508    0.000000
 ---------------------------------------------------------------------
 Rotational constants (GHZ):    587.8159706    474.0750107    262.4269981
 Standard basis: 3-21G (6D, 7F)
 There are    11 symmetry adapted cartesian basis functions of A'  symmetry.
 There are     2 symmetry adapted cartesian basis functions of A"  symmetry.
 There are    11 symmetry adapted basis functions of A'  symmetry.
 There are     2 symmetry adapted basis functions of A"  symmetry.
    13 basis functions,    21 primitive gaussians,    13 cartesian basis functions
     5 alpha electrons        5 beta electrons
       nuclear repulsion energy         8.8135869243 Hartrees.
 NAtoms=    3 NActive=    3 NUniq=    3 SFac= 1.00D+00 NAtFMM=   60 NAOKFM=F Big=F
 Integral buffers will be    262144 words long.
 Raffenetti 1 integral format.
 Two-electron integral symmetry is turned on.
 One-electron integrals computed using PRISM.
 NBasis=    13 RedAO= T EigKep=  1.60D-01  NBF=    11     2
 NBsUse=    13 1.00D-06 EigRej= -1.00D+00 NBFU=    11     2
 Initial guess from the checkpoint file:  "D:\Output - Gauss\water-scan.chk"
 B after Tr=     0.000000    0.000000    0.000000
         Rot=    0.999909    0.000000    0.000000    0.013523 Ang=   1.55 deg.
 Initial guess orbital symmetries:
       Occupied  (A') (A') (A') (A') (A")
       Virtual   (A') (A') (A') (A') (A') (A') (A') (A")
 ExpMin= 1.83D-01 ExpMax= 3.22D+02 ExpMxC= 3.22D+02 IAcc=1 IRadAn=         1 AccDes= 0.00D+00
 Harris functional with IExCor=  205 and IRadAn=       1 diagonalized for initial guess.
 HarFok:  IExCor=  205 AccDes= 0.00D+00 IRadAn=         1 IDoV= 1 UseB2=F ITyADJ=14
 ICtDFT=  3500011 ScaDFX=  1.000000  1.000000  1.000000  1.000000
 FoFCou: FMM=F IPFlag=           0 FMFlag=      100000 FMFlg1=           0
         NFxFlg=           0 DoJE=T BraDBF=F KetDBF=T FulRan=T
         wScrn=  0.000000 ICntrl=     500 IOpCl=  0 I1Cent=   200000004 NGrid=           0
         NMat0=    1 NMatS0=      1 NMatT0=    0 NMatD0=    1 NMtDS0=    0 NMtDT0=    0
 Petite list used in FoFCou.
 Keep R1 ints in memory in symmetry-blocked form, NReq=826359.
 Requested convergence on RMS density matrix=1.00D-08 within 128 cycles.
 Requested convergence on MAX density matrix=1.00D-06.
 Requested convergence on             energy=1.00D-06.
 No special actions if energy rises.
 SCF Done:  E(RHF) =  -75.5721487249     A.U. after   10 cycles
            NFock= 10  Conv=0.10D-08     -V/T= 2.0032
 Variable Step   Value    
 -------- ---- -----------
     1       6    2.078699
     3       0    1.570796
 ---------------------------------------------------------------------------------------------------
                            Z-MATRIX (ANGSTROMS AND DEGREES)
   CD    Cent   Atom    N1       Length/X        N2       Alpha/Y        N3        Beta/Z          J
 ---------------------------------------------------------------------------------------------------
      1      1  O 
      2      2  H        1   1.100000(     1)
      3      3  H        1   0.960000(     2)      2   90.000(     3)
 ---------------------------------------------------------------------------------------------------
                         Z-Matrix orientation:                         
 ---------------------------------------------------------------------
 Center     Atomic      Atomic             Coordinates (Angstroms)
 Number     Number       Type             X           Y           Z
 ---------------------------------------------------------------------
      1          8           0        0.000000    0.000000    0.000000
      2          1           0        0.000000    0.000000    1.100000
      3          1           0        0.960000    0.000000    0.000000
 ---------------------------------------------------------------------
                    Distance matrix (angstroms):
                    1          2          3
     1  O    0.000000
     2  H    1.100000   0.000000
     3  H    0.960000   1.460000   0.000000
 Stoichiometry    H2O
 Framework group  CS[SG(H2O)]
 Deg. of freedom     3
 Full point group                 CS      NOp   2
 Largest Abelian subgroup         CS      NOp   2
 Largest concise Abelian subgroup C1      NOp   1
                         Standard orientation:                         
 ---------------------------------------------------------------------
 Center     Atomic      Atomic             Coordinates (Angstroms)
 Number     Number       Type             X           Y           Z
 ---------------------------------------------------------------------
      1          8           0        0.000000    0.146000    0.000000
      2          1           0        0.723288   -0.682767    0.000000
      3          1           0       -0.723288   -0.485233    0.000000
 ---------------------------------------------------------------------
 Rotational constants (GHZ):    584.6115407    434.3244600    249.1923845
 Standard basis: 3-21G (6D, 7F)
 There are    11 symmetry adapted cartesian basis functions of A'  symmetry.
 There are     2 symmetry adapted cartesian basis functions of A"  symmetry.
 There are    11 symmetry adapted basis functions of A'  symmetry.
 There are     2 symmetry adapted basis functions of A"  symmetry.
    13 basis functions,    21 primitive gaussians,    13 cartesian basis functions
     5 alpha electrons        5 beta electrons
       nuclear repulsion energy         8.6208217315 Hartrees.
 NAtoms=    3 NActive=    3 NUniq=    3 SFac= 1.00D+00 NAtFMM=   60 NAOKFM=F Big=F
 Integral buffers will be    262144 words long.
 Raffenetti 1 integral format.
 Two-electron integral symmetry is turned on.
 One-electron integrals computed using PRISM.
 NBasis=    13 RedAO= T EigKep=  1.65D-01  NBF=    11     2
 NBsUse=    13 1.00D-06 EigRej= -1.00D+00 NBFU=    11     2
 Initial guess from the checkpoint file:  "D:\Output - Gauss\water-scan.chk"
 B after Tr=     0.000000    0.000000    0.000000
         Rot=    0.999918    0.000000    0.000000    0.012839 Ang=   1.47 deg.
 Initial guess orbital symmetries:
       Occupied  (A') (A') (A') (A') (A")
       Virtual   (A') (A') (A') (A') (A') (A') (A') (A")
 ExpMin= 1.83D-01 ExpMax= 3.22D+02 ExpMxC= 3.22D+02 IAcc=1 IRadAn=         1 AccDes= 0.00D+00
 Harris functional with IExCor=  205 and IRadAn=       1 diagonalized for initial guess.
 HarFok:  IExCor=  205 AccDes= 0.00D+00 IRadAn=         1 IDoV= 1 UseB2=F ITyADJ=14
 ICtDFT=  3500011 ScaDFX=  1.000000  1.000000  1.000000  1.000000
 FoFCou: FMM=F IPFlag=           0 FMFlag=      100000 FMFlg1=           0
         NFxFlg=           0 DoJE=T BraDBF=F KetDBF=T FulRan=T
         wScrn=  0.000000 ICntrl=     500 IOpCl=  0 I1Cent=   200000004 NGrid=           0
         NMat0=    1 NMatS0=      1 NMatT0=    0 NMatD0=    1 NMtDS0=    0 NMtDT0=    0
 Petite list used in FoFCou.
 Keep R1 ints in memory in symmetry-blocked form, NReq=826359.
 Requested convergence on RMS density matrix=1.00D-08 within 128 cycles.
 Requested convergence on MAX density matrix=1.00D-06.
 Requested convergence on             energy=1.00D-06.
 No special actions if energy rises.
 SCF Done:  E(RHF) =  -75.5660957296     A.U. after   10 cycles
            NFock= 10  Conv=0.11D-08     -V/T= 2.0040
 Variable Step   Value    
 -------- ---- -----------
     1       7    2.173185
     3       0    1.570796
 ---------------------------------------------------------------------------------------------------
                            Z-MATRIX (ANGSTROMS AND DEGREES)
   CD    Cent   Atom    N1       Length/X        N2       Alpha/Y        N3        Beta/Z          J
 ---------------------------------------------------------------------------------------------------
      1      1  O 
      2      2  H        1   1.150000(     1)
      3      3  H        1   0.960000(     2)      2   90.000(     3)
 ---------------------------------------------------------------------------------------------------
                         Z-Matrix orientation:                         
 ---------------------------------------------------------------------
 Center     Atomic      Atomic             Coordinates (Angstroms)
 Number     Number       Type             X           Y           Z
 ---------------------------------------------------------------------
      1          8           0        0.000000    0.000000    0.000000
      2          1           0        0.000000    0.000000    1.150000
      3          1           0        0.960000    0.000000    0.000000
 ---------------------------------------------------------------------
                    Distance matrix (angstroms):
                    1          2          3
     1  O    0.000000
     2  H    1.150000   0.000000
     3  H    0.960000   1.498032   0.000000
 Stoichiometry    H2O
 Framework group  CS[SG(H2O)]
 Deg. of freedom     3
 Full point group                 CS      NOp   2
 Largest Abelian subgroup         CS      NOp   2
 Largest concise Abelian subgroup C1      NOp   1
                         Standard orientation:                         
 ---------------------------------------------------------------------
 Center     Atomic      Atomic             Coordinates (Angstroms)
 Number     Number       Type             X           Y           Z
 ---------------------------------------------------------------------
      1          8           0        0.000000    0.149803    0.000000
      2          1           0        0.736967   -0.733022    0.000000
      3          1           0       -0.736967   -0.465404    0.000000
 ---------------------------------------------------------------------
 Rotational constants (GHZ):    582.9510605    398.5100384    236.7000075
 Standard basis: 3-21G (6D, 7F)
 There are    11 symmetry adapted cartesian basis functions of A'  symmetry.
 There are     2 symmetry adapted cartesian basis functions of A"  symmetry.
 There are    11 symmetry adapted basis functions of A'  symmetry.
 There are     2 symmetry adapted basis functions of A"  symmetry.
    13 basis functions,    21 primitive gaussians,    13 cartesian basis functions
     5 alpha electrons        5 beta electrons
       nuclear repulsion energy         8.4442910845 Hartrees.
 NAtoms=    3 NActive=    3 NUniq=    3 SFac= 1.00D+00 NAtFMM=   60 NAOKFM=F Big=F
 Integral buffers will be    262144 words long.
 Raffenetti 1 integral format.
 Two-electron integral symmetry is turned on.
 One-electron integrals computed using PRISM.
 NBasis=    13 RedAO= T EigKep=  1.69D-01  NBF=    11     2
 NBsUse=    13 1.00D-06 EigRej= -1.00D+00 NBFU=    11     2
 Initial guess from the checkpoint file:  "D:\Output - Gauss\water-scan.chk"
 B after Tr=     0.000000    0.000000    0.000000
         Rot=    0.999926    0.000000    0.000000    0.012193 Ang=   1.40 deg.
 Initial guess orbital symmetries:
       Occupied  (A') (A') (A') (A') (A")
       Virtual   (A') (A') (A') (A') (A') (A') (A') (A")
 ExpMin= 1.83D-01 ExpMax= 3.22D+02 ExpMxC= 3.22D+02 IAcc=1 IRadAn=         1 AccDes= 0.00D+00
 Harris functional with IExCor=  205 and IRadAn=       1 diagonalized for initial guess.
 HarFok:  IExCor=  205 AccDes= 0.00D+00 IRadAn=         1 IDoV= 1 UseB2=F ITyADJ=14
 ICtDFT=  3500011 ScaDFX=  1.000000  1.000000  1.000000  1.000000
 FoFCou: FMM=F IPFlag=           0 FMFlag=      100000 FMFlg1=           0
         NFxFlg=           0 DoJE=T BraDBF=F KetDBF=T FulRan=T
         wScrn=  0.000000 ICntrl=     500 IOpCl=  0 I1Cent=   200000004 NGrid=           0
         NMat0=    1 NMatS0=      1 NMatT0=    0 NMatD0=    1 NMtDS0=    0 NMtDT0=    0
 Petite list used in FoFCou.
 Keep R1 ints in memory in symmetry-blocked form, NReq=826359.
 Requested convergence on RMS density matrix=1.00D-08 within 128 cycles.
 Requested convergence on MAX density matrix=1.00D-06.
 Requested convergence on             energy=1.00D-06.
 No special actions if energy rises.
 SCF Done:  E(RHF) =  -75.5580025548     A.U. after   10 cycles
            NFock= 10  Conv=0.11D-08     -V/T= 2.0047
 Variable Step   Value    
 -------- ---- -----------
     1       8    2.267671
     3       0    1.570796
 ---------------------------------------------------------------------------------------------------
                            Z-MATRIX (ANGSTROMS AND DEGREES)
   CD    Cent   Atom    N1       Length/X        N2       Alpha/Y        N3        Beta/Z          J
 ---------------------------------------------------------------------------------------------------
      1      1  O 
      2      2  H        1   1.200000(     1)
      3      3  H        1   0.960000(     2)      2   90.000(     3)
 ---------------------------------------------------------------------------------------------------
                         Z-Matrix orientation:                         
 ---------------------------------------------------------------------
 Center     Atomic      Atomic             Coordinates (Angstroms)
 Number     Number       Type             X           Y           Z
 ---------------------------------------------------------------------
      1          8           0        0.000000    0.000000    0.000000
      2          1           0        0.000000    0.000000    1.200000
      3          1           0        0.960000    0.000000    0.000000
 ---------------------------------------------------------------------
                    Distance matrix (angstroms):
                    1          2          3
     1  O    0.000000
     2  H    1.200000   0.000000
     3  H    0.960000   1.536750   0.000000
 Stoichiometry    H2O
 Framework group  CS[SG(H2O)]
 Deg. of freedom     3
 Full point group                 CS      NOp   2
 Largest Abelian subgroup         CS      NOp   2
 Largest concise Abelian subgroup C1      NOp   1
                         Standard orientation:                         
 ---------------------------------------------------------------------
 Center     Atomic      Atomic             Coordinates (Angstroms)
 Number     Number       Type             X           Y           Z
 ---------------------------------------------------------------------
      1          8           0        0.000000    0.153675    0.000000
      2          1           0        0.749634   -0.783368    0.000000
      3          1           0       -0.749634   -0.446032    0.000000
 ---------------------------------------------------------------------
 Rotational constants (GHZ):    581.9498524    366.6223937    224.9231398
 Standard basis: 3-21G (6D, 7F)
 There are    11 symmetry adapted cartesian basis functions of A'  symmetry.
 There are     2 symmetry adapted cartesian basis functions of A"  symmetry.
 There are    11 symmetry adapted basis functions of A'  symmetry.
 There are     2 symmetry adapted basis functions of A"  symmetry.
    13 basis functions,    21 primitive gaussians,    13 cartesian basis functions
     5 alpha electrons        5 beta electrons
       nuclear repulsion energy         8.2820064429 Hartrees.
 NAtoms=    3 NActive=    3 NUniq=    3 SFac= 1.00D+00 NAtFMM=   60 NAOKFM=F Big=F
 Integral buffers will be    262144 words long.
 Raffenetti 1 integral format.
 Two-electron integral symmetry is turned on.
 One-electron integrals computed using PRISM.
 NBasis=    13 RedAO= T EigKep=  1.72D-01  NBF=    11     2
 NBsUse=    13 1.00D-06 EigRej= -1.00D+00 NBFU=    11     2
 Initial guess from the checkpoint file:  "D:\Output - Gauss\water-scan.chk"
 B after Tr=     0.000000    0.000000    0.000000
         Rot=    0.999933    0.000000    0.000000    0.011584 Ang=   1.33 deg.
 Initial guess orbital symmetries:
       Occupied  (A') (A') (A') (A') (A")
       Virtual   (A') (A') (A') (A') (A') (A') (A') (A")
 ExpMin= 1.83D-01 ExpMax= 3.22D+02 ExpMxC= 3.22D+02 IAcc=1 IRadAn=         1 AccDes= 0.00D+00
 Harris functional with IExCor=  205 and IRadAn=       1 diagonalized for initial guess.
 HarFok:  IExCor=  205 AccDes= 0.00D+00 IRadAn=         1 IDoV= 1 UseB2=F ITyADJ=14
 ICtDFT=  3500011 ScaDFX=  1.000000  1.000000  1.000000  1.000000
 FoFCou: FMM=F IPFlag=           0 FMFlag=      100000 FMFlg1=           0
         NFxFlg=           0 DoJE=T BraDBF=F KetDBF=T FulRan=T
         wScrn=  0.000000 ICntrl=     500 IOpCl=  0 I1Cent=   200000004 NGrid=           0
         NMat0=    1 NMatS0=      1 NMatT0=    0 NMatD0=    1 NMtDS0=    0 NMtDT0=    0
 Petite list used in FoFCou.
 Keep R1 ints in memory in symmetry-blocked form, NReq=826359.
 Requested convergence on RMS density matrix=1.00D-08 within 128 cycles.
 Requested convergence on MAX density matrix=1.00D-06.
 Requested convergence on             energy=1.00D-06.
 No special actions if energy rises.
 SCF Done:  E(RHF) =  -75.5484458189     A.U. after    9 cycles
            NFock=  9  Conv=0.98D-08     -V/T= 2.0053
 Variable Step   Value    
 -------- ---- -----------
     1       9    2.362158
     3       0    1.570796
 ---------------------------------------------------------------------------------------------------
                            Z-MATRIX (ANGSTROMS AND DEGREES)
   CD    Cent   Atom    N1       Length/X        N2       Alpha/Y        N3        Beta/Z          J
 ---------------------------------------------------------------------------------------------------
      1      1  O 
      2      2  H        1   1.250000(     1)
      3      3  H        1   0.960000(     2)      2   90.000(     3)
 ---------------------------------------------------------------------------------------------------
                         Z-Matrix orientation:                         
 ---------------------------------------------------------------------
 Center     Atomic      Atomic             Coordinates (Angstroms)
 Number     Number       Type             X           Y           Z
 ---------------------------------------------------------------------
      1          8           0        0.000000    0.000000    0.000000
      2          1           0        0.000000    0.000000    1.250000
      3          1           0        0.960000    0.000000    0.000000
 ---------------------------------------------------------------------
                    Distance matrix (angstroms):
                    1          2          3
     1  O    0.000000
     2  H    1.250000   0.000000
     3  H    0.960000   1.576103   0.000000
 Stoichiometry    H2O
 Framework group  CS[SG(H2O)]
 Deg. of freedom     3
 Full point group                 CS      NOp   2
 Largest Abelian subgroup         CS      NOp   2
 Largest concise Abelian subgroup C1      NOp   1
                         Standard orientation:                         
 ---------------------------------------------------------------------
 Center     Atomic      Atomic             Coordinates (Angstroms)
 Number     Number       Type             X           Y           Z
 ---------------------------------------------------------------------
      1          8           0        0.000000    0.157610    0.000000
      2          1           0        0.761372   -0.833759    0.000000
      3          1           0       -0.761372   -0.427123    0.000000
 ---------------------------------------------------------------------
 Rotational constants (GHZ):    581.2847864    338.2657761    213.8313622
 Standard basis: 3-21G (6D, 7F)
 There are    11 symmetry adapted cartesian basis functions of A'  symmetry.
 There are     2 symmetry adapted cartesian basis functions of A"  symmetry.
 There are    11 symmetry adapted basis functions of A'  symmetry.
 There are     2 symmetry adapted basis functions of A"  symmetry.
    13 basis functions,    21 primitive gaussians,    13 cartesian basis functions
     5 alpha electrons        5 beta electrons
       nuclear repulsion energy         8.1322946490 Hartrees.
 NAtoms=    3 NActive=    3 NUniq=    3 SFac= 1.00D+00 NAtFMM=   60 NAOKFM=F Big=F
 Integral buffers will be    262144 words long.
 Raffenetti 1 integral format.
 Two-electron integral symmetry is turned on.
 One-electron integrals computed using PRISM.
 NBasis=    13 RedAO= T EigKep=  1.74D-01  NBF=    11     2
 NBsUse=    13 1.00D-06 EigRej= -1.00D+00 NBFU=    11     2
 Initial guess from the checkpoint file:  "D:\Output - Gauss\water-scan.chk"
 B after Tr=     0.000000    0.000000    0.000000
         Rot=    0.999939    0.000000    0.000000    0.011010 Ang=   1.26 deg.
 Initial guess orbital symmetries:
       Occupied  (A') (A') (A') (A') (A")
       Virtual   (A') (A') (A') (A') (A') (A') (A') (A")
 ExpMin= 1.83D-01 ExpMax= 3.22D+02 ExpMxC= 3.22D+02 IAcc=1 IRadAn=         1 AccDes= 0.00D+00
 Harris functional with IExCor=  205 and IRadAn=       1 diagonalized for initial guess.
 HarFok:  IExCor=  205 AccDes= 0.00D+00 IRadAn=         1 IDoV= 1 UseB2=F ITyADJ=14
 ICtDFT=  3500011 ScaDFX=  1.000000  1.000000  1.000000  1.000000
 FoFCou: FMM=F IPFlag=           0 FMFlag=      100000 FMFlg1=           0
         NFxFlg=           0 DoJE=T BraDBF=F KetDBF=T FulRan=T
         wScrn=  0.000000 ICntrl=     500 IOpCl=  0 I1Cent=   200000004 NGrid=           0
         NMat0=    1 NMatS0=      1 NMatT0=    0 NMatD0=    1 NMtDS0=    0 NMtDT0=    0
 Petite list used in FoFCou.
 Keep R1 ints in memory in symmetry-blocked form, NReq=826359.
 Requested convergence on RMS density matrix=1.00D-08 within 128 cycles.
 Requested convergence on MAX density matrix=1.00D-06.
 Requested convergence on             energy=1.00D-06.
 No special actions if energy rises.
 SCF Done:  E(RHF) =  -75.5378528963     A.U. after    9 cycles
            NFock=  9  Conv=0.94D-08     -V/T= 2.0057
 Variable Step   Value    
 -------- ---- -----------
     1      10    2.456644
     3       0    1.570796
 ---------------------------------------------------------------------------------------------------
                            Z-MATRIX (ANGSTROMS AND DEGREES)
   CD    Cent   Atom    N1       Length/X        N2       Alpha/Y        N3        Beta/Z          J
 ---------------------------------------------------------------------------------------------------
      1      1  O 
      2      2  H        1   1.300000(     1)
      3      3  H        1   0.960000(     2)      2   90.000(     3)
 ---------------------------------------------------------------------------------------------------
                         Z-Matrix orientation:                         
 ---------------------------------------------------------------------
 Center     Atomic      Atomic             Coordinates (Angstroms)
 Number     Number       Type             X           Y           Z
 ---------------------------------------------------------------------
      1          8           0        0.000000    0.000000    0.000000
      2          1           0        0.000000    0.000000    1.300000
      3          1           0        0.960000    0.000000    0.000000
 ---------------------------------------------------------------------
                    Distance matrix (angstroms):
                    1          2          3
     1  O    0.000000
     2  H    1.300000   0.000000
     3  H    0.960000   1.616045   0.000000
 Stoichiometry    H2O
 Framework group  CS[SG(H2O)]
 Deg. of freedom     3
 Full point group                 CS      NOp   2
 Largest Abelian subgroup         CS      NOp   2
 Largest concise Abelian subgroup C1      NOp   1
                         Standard orientation:                         
 ---------------------------------------------------------------------
 Center     Atomic      Atomic             Coordinates (Angstroms)
 Number     Number       Type             X           Y           Z
 ---------------------------------------------------------------------
      1          8           0        0.000000    0.161604    0.000000
      2          1           0        0.772256   -0.884159    0.000000
      3          1           0       -0.772256   -0.408677    0.000000
 ---------------------------------------------------------------------
 Rotational constants (GHZ):    580.8128600    312.9998394    203.3919769
 Standard basis: 3-21G (6D, 7F)
 There are    11 symmetry adapted cartesian basis functions of A'  symmetry.
 There are     2 symmetry adapted cartesian basis functions of A"  symmetry.
 There are    11 symmetry adapted basis functions of A'  symmetry.
 There are     2 symmetry adapted basis functions of A"  symmetry.
    13 basis functions,    21 primitive gaussians,    13 cartesian basis functions
     5 alpha electrons        5 beta electrons
       nuclear repulsion energy         7.9937373173 Hartrees.
 NAtoms=    3 NActive=    3 NUniq=    3 SFac= 1.00D+00 NAtFMM=   60 NAOKFM=F Big=F
 Integral buffers will be    262144 words long.
 Raffenetti 1 integral format.
 Two-electron integral symmetry is turned on.
 One-electron integrals computed using PRISM.
 NBasis=    13 RedAO= T EigKep=  1.75D-01  NBF=    11     2
 NBsUse=    13 1.00D-06 EigRej= -1.00D+00 NBFU=    11     2
 Initial guess from the checkpoint file:  "D:\Output - Gauss\water-scan.chk"
 B after Tr=     0.000000    0.000000    0.000000
         Rot=    0.999945    0.000000    0.000000    0.010470 Ang=   1.20 deg.
 Initial guess orbital symmetries:
       Occupied  (A') (A') (A') (A') (A")
       Virtual   (A') (A') (A') (A') (A') (A') (A') (A")
 ExpMin= 1.83D-01 ExpMax= 3.22D+02 ExpMxC= 3.22D+02 IAcc=1 IRadAn=         1 AccDes= 0.00D+00
 Harris functional with IExCor=  205 and IRadAn=       1 diagonalized for initial guess.
 HarFok:  IExCor=  205 AccDes= 0.00D+00 IRadAn=         1 IDoV= 1 UseB2=F ITyADJ=14
 ICtDFT=  3500011 ScaDFX=  1.000000  1.000000  1.000000  1.000000
 FoFCou: FMM=F IPFlag=           0 FMFlag=      100000 FMFlg1=           0
         NFxFlg=           0 DoJE=T BraDBF=F KetDBF=T FulRan=T
         wScrn=  0.000000 ICntrl=     500 IOpCl=  0 I1Cent=   200000004 NGrid=           0
         NMat0=    1 NMatS0=      1 NMatT0=    0 NMatD0=    1 NMtDS0=    0 NMtDT0=    0
 Petite list used in FoFCou.
 Keep R1 ints in memory in symmetry-blocked form, NReq=826345.
 Requested convergence on RMS density matrix=1.00D-08 within 128 cycles.
 Requested convergence on MAX density matrix=1.00D-06.
 Requested convergence on             energy=1.00D-06.
 No special actions if energy rises.
 SCF Done:  E(RHF) =  -75.5265467977     A.U. after    9 cycles
            NFock=  9  Conv=0.89D-08     -V/T= 2.0060
 Variable Step   Value    
 -------- ---- -----------
     1       0    1.511781
     3       1    1.658063
 ---------------------------------------------------------------------------------------------------
                            Z-MATRIX (ANGSTROMS AND DEGREES)
   CD    Cent   Atom    N1       Length/X        N2       Alpha/Y        N3        Beta/Z          J
 ---------------------------------------------------------------------------------------------------
      1      1  O 
      2      2  H        1   0.800000(     1)
      3      3  H        1   0.960000(     2)      2   95.000(     3)
 ---------------------------------------------------------------------------------------------------
                         Z-Matrix orientation:                         
 ---------------------------------------------------------------------
 Center     Atomic      Atomic             Coordinates (Angstroms)
 Number     Number       Type             X           Y           Z
 ---------------------------------------------------------------------
      1          8           0        0.000000    0.000000    0.000000
      2          1           0        0.000000    0.000000    0.800000
      3          1           0        0.956347    0.000000   -0.083670
 ---------------------------------------------------------------------
                    Distance matrix (angstroms):
                    1          2          3
     1  O    0.000000
     2  H    0.800000   0.000000
     3  H    0.960000   1.302103   0.000000
 Stoichiometry    H2O
 Framework group  CS[SG(H2O)]
 Deg. of freedom     3
 Full point group                 CS      NOp   2
 Largest Abelian subgroup         CS      NOp   2
 Largest concise Abelian subgroup C1      NOp   1
                         Standard orientation:                         
 ---------------------------------------------------------------------
 Center     Atomic      Atomic             Coordinates (Angstroms)
 Number     Number       Type             X           Y           Z
 ---------------------------------------------------------------------
      1          8           0        0.000000    0.119488    0.000000
      2          1           0        0.640299   -0.360114    0.000000
      3          1           0       -0.640299   -0.595787    0.000000
 ---------------------------------------------------------------------
 Rotational constants (GHZ):    879.0162399    550.3027946    338.4304565
 Standard basis: 3-21G (6D, 7F)
 There are    11 symmetry adapted cartesian basis functions of A'  symmetry.
 There are     2 symmetry adapted cartesian basis functions of A"  symmetry.
 There are    11 symmetry adapted basis functions of A'  symmetry.
 There are     2 symmetry adapted basis functions of A"  symmetry.
    13 basis functions,    21 primitive gaussians,    13 cartesian basis functions
     5 alpha electrons        5 beta electrons
       nuclear repulsion energy        10.1079842354 Hartrees.
 NAtoms=    3 NActive=    3 NUniq=    3 SFac= 1.00D+00 NAtFMM=   60 NAOKFM=F Big=F
 Integral buffers will be    262144 words long.
 Raffenetti 1 integral format.
 Two-electron integral symmetry is turned on.
 One-electron integrals computed using PRISM.
 NBasis=    13 RedAO= T EigKep=  1.19D-01  NBF=    11     2
 NBsUse=    13 1.00D-06 EigRej= -1.00D+00 NBFU=    11     2
 Initial guess from the checkpoint file:  "D:\Output - Gauss\water-scan.chk"
 B after Tr=     0.000000    0.000000    0.000000
         Rot=    0.990364    0.000000    0.000000   -0.138492 Ang= -15.92 deg.
 Initial guess orbital symmetries:
       Occupied  (A') (A') (A') (A') (A")
       Virtual   (A') (A') (A') (A') (A') (A') (A') (A")
 ExpMin= 1.83D-01 ExpMax= 3.22D+02 ExpMxC= 3.22D+02 IAcc=1 IRadAn=         1 AccDes= 0.00D+00
 Harris functional with IExCor=  205 and IRadAn=       1 diagonalized for initial guess.
 HarFok:  IExCor=  205 AccDes= 0.00D+00 IRadAn=         1 IDoV= 1 UseB2=F ITyADJ=14
 ICtDFT=  3500011 ScaDFX=  1.000000  1.000000  1.000000  1.000000
 FoFCou: FMM=F IPFlag=           0 FMFlag=      100000 FMFlg1=           0
         NFxFlg=           0 DoJE=T BraDBF=F KetDBF=T FulRan=T
         wScrn=  0.000000 ICntrl=     500 IOpCl=  0 I1Cent=   200000004 NGrid=           0
         NMat0=    1 NMatS0=      1 NMatT0=    0 NMatD0=    1 NMtDS0=    0 NMtDT0=    0
 Petite list used in FoFCou.
 Keep R1 ints in memory in symmetry-blocked form, NReq=826359.
 Requested convergence on RMS density matrix=1.00D-08 within 128 cycles.
 Requested convergence on MAX density matrix=1.00D-06.
 Requested convergence on             energy=1.00D-06.
 No special actions if energy rises.
 SCF Done:  E(RHF) =  -75.5372577451     A.U. after   11 cycles
            NFock= 11  Conv=0.12D-08     -V/T= 1.9953
 Variable Step   Value    
 -------- ---- -----------
     1       1    1.606267
     3       1    1.658063
 ---------------------------------------------------------------------------------------------------
                            Z-MATRIX (ANGSTROMS AND DEGREES)
   CD    Cent   Atom    N1       Length/X        N2       Alpha/Y        N3        Beta/Z          J
 ---------------------------------------------------------------------------------------------------
      1      1  O 
      2      2  H        1   0.850000(     1)
      3      3  H        1   0.960000(     2)      2   95.000(     3)
 ---------------------------------------------------------------------------------------------------
                         Z-Matrix orientation:                         
 ---------------------------------------------------------------------
 Center     Atomic      Atomic             Coordinates (Angstroms)
 Number     Number       Type             X           Y           Z
 ---------------------------------------------------------------------
      1          8           0        0.000000    0.000000    0.000000
      2          1           0        0.000000    0.000000    0.850000
      3          1           0        0.956347    0.000000   -0.083670
 ---------------------------------------------------------------------
                    Distance matrix (angstroms):
                    1          2          3
     1  O    0.000000
     2  H    0.850000   0.000000
     3  H    0.960000   1.336540   0.000000
 Stoichiometry    H2O
 Framework group  CS[SG(H2O)]
 Deg. of freedom     3
 Full point group                 CS      NOp   2
 Largest Abelian subgroup         CS      NOp   2
 Largest concise Abelian subgroup C1      NOp   1
                         Standard orientation:                         
 ---------------------------------------------------------------------
 Center     Atomic      Atomic             Coordinates (Angstroms)
 Number     Number       Type             X           Y           Z
 ---------------------------------------------------------------------
      1          8           0        0.000000    0.122550    0.000000
      2          1           0        0.663314   -0.408970    0.000000
      3          1           0       -0.663314   -0.571434    0.000000
 ---------------------------------------------------------------------
 Rotational constants (GHZ):    792.1192994    540.9413056    321.4332840
 Standard basis: 3-21G (6D, 7F)
 There are    11 symmetry adapted cartesian basis functions of A'  symmetry.
 There are     2 symmetry adapted cartesian basis functions of A"  symmetry.
 There are    11 symmetry adapted basis functions of A'  symmetry.
 There are     2 symmetry adapted basis functions of A"  symmetry.
    13 basis functions,    21 primitive gaussians,    13 cartesian basis functions
     5 alpha electrons        5 beta electrons
       nuclear repulsion energy         9.7862322504 Hartrees.
 NAtoms=    3 NActive=    3 NUniq=    3 SFac= 1.00D+00 NAtFMM=   60 NAOKFM=F Big=F
 Integral buffers will be    262144 words long.
 Raffenetti 1 integral format.
 Two-electron integral symmetry is turned on.
 One-electron integrals computed using PRISM.
 NBasis=    13 RedAO= T EigKep=  1.29D-01  NBF=    11     2
 NBsUse=    13 1.00D-06 EigRej= -1.00D+00 NBFU=    11     2
 Initial guess from the checkpoint file:  "D:\Output - Gauss\water-scan.chk"
 B after Tr=     0.000000    0.000000    0.000000
         Rot=    0.999838    0.000000    0.000000    0.017972 Ang=   2.06 deg.
 Initial guess orbital symmetries:
       Occupied  (A') (A') (A') (A') (A")
       Virtual   (A') (A') (A') (A') (A') (A') (A') (A")
 ExpMin= 1.83D-01 ExpMax= 3.22D+02 ExpMxC= 3.22D+02 IAcc=1 IRadAn=         1 AccDes= 0.00D+00
 Harris functional with IExCor=  205 and IRadAn=       1 diagonalized for initial guess.
 HarFok:  IExCor=  205 AccDes= 0.00D+00 IRadAn=         1 IDoV= 1 UseB2=F ITyADJ=14
 ICtDFT=  3500011 ScaDFX=  1.000000  1.000000  1.000000  1.000000
 FoFCou: FMM=F IPFlag=           0 FMFlag=      100000 FMFlg1=           0
         NFxFlg=           0 DoJE=T BraDBF=F KetDBF=T FulRan=T
         wScrn=  0.000000 ICntrl=     500 IOpCl=  0 I1Cent=   200000004 NGrid=           0
         NMat0=    1 NMatS0=      1 NMatT0=    0 NMatD0=    1 NMtDS0=    0 NMtDT0=    0
 Petite list used in FoFCou.
 Keep R1 ints in memory in symmetry-blocked form, NReq=826359.
 Requested convergence on RMS density matrix=1.00D-08 within 128 cycles.
 Requested convergence on MAX density matrix=1.00D-06.
 Requested convergence on             energy=1.00D-06.
 No special actions if energy rises.
 SCF Done:  E(RHF) =  -75.5609998605     A.U. after    9 cycles
            NFock=  9  Conv=0.88D-08     -V/T= 1.9977
 Variable Step   Value    
 -------- ---- -----------
     1       2    1.700754
     3       1    1.658063
 ---------------------------------------------------------------------------------------------------
                            Z-MATRIX (ANGSTROMS AND DEGREES)
   CD    Cent   Atom    N1       Length/X        N2       Alpha/Y        N3        Beta/Z          J
 ---------------------------------------------------------------------------------------------------
      1      1  O 
      2      2  H        1   0.900000(     1)
      3      3  H        1   0.960000(     2)      2   95.000(     3)
 ---------------------------------------------------------------------------------------------------
                         Z-Matrix orientation:                         
 ---------------------------------------------------------------------
 Center     Atomic      Atomic             Coordinates (Angstroms)
 Number     Number       Type             X           Y           Z
 ---------------------------------------------------------------------
      1          8           0        0.000000    0.000000    0.000000
      2          1           0        0.000000    0.000000    0.900000
      3          1           0        0.956347    0.000000   -0.083670
 ---------------------------------------------------------------------
                    Distance matrix (angstroms):
                    1          2          3
     1  O    0.000000
     2  H    0.900000   0.000000
     3  H    0.960000   1.371935   0.000000
 Stoichiometry    H2O
 Framework group  CS[SG(H2O)]
 Deg. of freedom     3
 Full point group                 CS      NOp   2
 Largest Abelian subgroup         CS      NOp   2
 Largest concise Abelian subgroup C1      NOp   1
                         Standard orientation:                         
 ---------------------------------------------------------------------
 Center     Atomic      Atomic             Coordinates (Angstroms)
 Number     Number       Type             X           Y           Z
 ---------------------------------------------------------------------
      1          8           0        0.000000    0.125738    0.000000
      2          1           0        0.684530   -0.458572    0.000000
      3          1           0       -0.684530   -0.547329    0.000000
 ---------------------------------------------------------------------
 Rotational constants (GHZ):    725.7221042    526.6513734    305.1825591
 Standard basis: 3-21G (6D, 7F)
 There are    11 symmetry adapted cartesian basis functions of A'  symmetry.
 There are     2 symmetry adapted cartesian basis functions of A"  symmetry.
 There are    11 symmetry adapted basis functions of A'  symmetry.
 There are     2 symmetry adapted basis functions of A"  symmetry.
    13 basis functions,    21 primitive gaussians,    13 cartesian basis functions
     5 alpha electrons        5 beta electrons
       nuclear repulsion energy         9.4993234822 Hartrees.
 NAtoms=    3 NActive=    3 NUniq=    3 SFac= 1.00D+00 NAtFMM=   60 NAOKFM=F Big=F
 Integral buffers will be    262144 words long.
 Raffenetti 1 integral format.
 Two-electron integral symmetry is turned on.
 One-electron integrals computed using PRISM.
 NBasis=    13 RedAO= T EigKep=  1.39D-01  NBF=    11     2
 NBsUse=    13 1.00D-06 EigRej= -1.00D+00 NBFU=    11     2
 Initial guess from the checkpoint file:  "D:\Output - Gauss\water-scan.chk"
 B after Tr=     0.000000    0.000000    0.000000
         Rot=    0.999854    0.000000    0.000000    0.017078 Ang=   1.96 deg.
 Initial guess orbital symmetries:
       Occupied  (A') (A') (A') (A') (A")
       Virtual   (A') (A') (A') (A') (A') (A') (A') (A")
 ExpMin= 1.83D-01 ExpMax= 3.22D+02 ExpMxC= 3.22D+02 IAcc=1 IRadAn=         1 AccDes= 0.00D+00
 Harris functional with IExCor=  205 and IRadAn=       1 diagonalized for initial guess.
 HarFok:  IExCor=  205 AccDes= 0.00D+00 IRadAn=         1 IDoV= 1 UseB2=F ITyADJ=14
 ICtDFT=  3500011 ScaDFX=  1.000000  1.000000  1.000000  1.000000
 FoFCou: FMM=F IPFlag=           0 FMFlag=      100000 FMFlg1=           0
         NFxFlg=           0 DoJE=T BraDBF=F KetDBF=T FulRan=T
         wScrn=  0.000000 ICntrl=     500 IOpCl=  0 I1Cent=   200000004 NGrid=           0
         NMat0=    1 NMatS0=      1 NMatT0=    0 NMatD0=    1 NMtDS0=    0 NMtDT0=    0
 Petite list used in FoFCou.
 Keep R1 ints in memory in symmetry-blocked form, NReq=826359.
 Requested convergence on RMS density matrix=1.00D-08 within 128 cycles.
 Requested convergence on MAX density matrix=1.00D-06.
 Requested convergence on             energy=1.00D-06.
 No special actions if energy rises.
 SCF Done:  E(RHF) =  -75.5742754676     A.U. after    9 cycles
            NFock=  9  Conv=0.94D-08     -V/T= 1.9996
 Variable Step   Value    
 -------- ---- -----------
     1       3    1.795240
     3       1    1.658063
 ---------------------------------------------------------------------------------------------------
                            Z-MATRIX (ANGSTROMS AND DEGREES)
   CD    Cent   Atom    N1       Length/X        N2       Alpha/Y        N3        Beta/Z          J
 ---------------------------------------------------------------------------------------------------
      1      1  O 
      2      2  H        1   0.950000(     1)
      3      3  H        1   0.960000(     2)      2   95.000(     3)
 ---------------------------------------------------------------------------------------------------
                         Z-Matrix orientation:                         
 ---------------------------------------------------------------------
 Center     Atomic      Atomic             Coordinates (Angstroms)
 Number     Number       Type             X           Y           Z
 ---------------------------------------------------------------------
      1          8           0        0.000000    0.000000    0.000000
      2          1           0        0.000000    0.000000    0.950000
      3          1           0        0.956347    0.000000   -0.083670
 ---------------------------------------------------------------------
                    Distance matrix (angstroms):
                    1          2          3
     1  O    0.000000
     2  H    0.950000   0.000000
     3  H    0.960000   1.408216   0.000000
 Stoichiometry    H2O
 Framework group  CS[SG(H2O)]
 Deg. of freedom     3
 Full point group                 CS      NOp   2
 Largest Abelian subgroup         CS      NOp   2
 Largest concise Abelian subgroup C1      NOp   1
                         Standard orientation:                         
 ---------------------------------------------------------------------
 Center     Atomic      Atomic             Coordinates (Angstroms)
 Number     Number       Type             X           Y           Z
 ---------------------------------------------------------------------
      1          8           0        0.000000    0.129040    0.000000
      2          1           0        0.704069   -0.508759    0.000000
      3          1           0       -0.704069   -0.523560    0.000000
 ---------------------------------------------------------------------
 Rotational constants (GHZ):    678.4976146    505.5720487    289.7037562
 Standard basis: 3-21G (6D, 7F)
 There are    11 symmetry adapted cartesian basis functions of A'  symmetry.
 There are     2 symmetry adapted cartesian basis functions of A"  symmetry.
 There are    11 symmetry adapted basis functions of A'  symmetry.
 There are     2 symmetry adapted basis functions of A"  symmetry.
    13 basis functions,    21 primitive gaussians,    13 cartesian basis functions
     5 alpha electrons        5 beta electrons
       nuclear repulsion energy         9.2418176560 Hartrees.
 NAtoms=    3 NActive=    3 NUniq=    3 SFac= 1.00D+00 NAtFMM=   60 NAOKFM=F Big=F
 Integral buffers will be    262144 words long.
 Raffenetti 1 integral format.
 Two-electron integral symmetry is turned on.
 One-electron integrals computed using PRISM.
 NBasis=    13 RedAO= T EigKep=  1.48D-01  NBF=    11     2
 NBsUse=    13 1.00D-06 EigRej= -1.00D+00 NBFU=    11     2
 Initial guess from the checkpoint file:  "D:\Output - Gauss\water-scan.chk"
 B after Tr=     0.000000    0.000000    0.000000
         Rot=    0.999868    0.000000    0.000000    0.016218 Ang=   1.86 deg.
 Initial guess orbital symmetries:
       Occupied  (A') (A') (A') (A') (A")
       Virtual   (A') (A') (A') (A') (A') (A') (A') (A")
 ExpMin= 1.83D-01 ExpMax= 3.22D+02 ExpMxC= 3.22D+02 IAcc=1 IRadAn=         1 AccDes= 0.00D+00
 Harris functional with IExCor=  205 and IRadAn=       1 diagonalized for initial guess.
 HarFok:  IExCor=  205 AccDes= 0.00D+00 IRadAn=         1 IDoV= 1 UseB2=F ITyADJ=14
 ICtDFT=  3500011 ScaDFX=  1.000000  1.000000  1.000000  1.000000
 FoFCou: FMM=F IPFlag=           0 FMFlag=      100000 FMFlg1=           0
         NFxFlg=           0 DoJE=T BraDBF=F KetDBF=T FulRan=T
         wScrn=  0.000000 ICntrl=     500 IOpCl=  0 I1Cent=   200000004 NGrid=           0
         NMat0=    1 NMatS0=      1 NMatT0=    0 NMatD0=    1 NMtDS0=    0 NMtDT0=    0
 Petite list used in FoFCou.
 Keep R1 ints in memory in symmetry-blocked form, NReq=826359.
 Requested convergence on RMS density matrix=1.00D-08 within 128 cycles.
 Requested convergence on MAX density matrix=1.00D-06.
 Requested convergence on             energy=1.00D-06.
 No special actions if energy rises.
 SCF Done:  E(RHF) =  -75.5799891305     A.U. after   10 cycles
            NFock= 10  Conv=0.12D-08     -V/T= 2.0011
 Variable Step   Value    
 -------- ---- -----------
     1       4    1.889726
     3       1    1.658063
[...]
 ExpMin= 1.83D-01 ExpMax= 3.22D+02 ExpMxC= 3.22D+02 IAcc=1 IRadAn=         1 AccDes= 0.00D+00
 Harris functional with IExCor=  205 and IRadAn=       1 diagonalized for initial guess.
 HarFok:  IExCor=  205 AccDes= 0.00D+00 IRadAn=         1 IDoV= 1 UseB2=F ITyADJ=14
 ICtDFT=  3500011 ScaDFX=  1.000000  1.000000  1.000000  1.000000
 FoFCou: FMM=F IPFlag=           0 FMFlag=      100000 FMFlg1=           0
         NFxFlg=           0 DoJE=T BraDBF=F KetDBF=T FulRan=T
         wScrn=  0.000000 ICntrl=     500 IOpCl=  0 I1Cent=   200000004 NGrid=           0
         NMat0=    1 NMatS0=      1 NMatT0=    0 NMatD0=    1 NMtDS0=    0 NMtDT0=    0
 Petite list used in FoFCou.
 Keep R1 ints in memory in symmetry-blocked form, NReq=826331.
 Requested convergence on RMS density matrix=1.00D-08 within 128 cycles.
 Requested convergence on MAX density matrix=1.00D-06.
 Requested convergence on             energy=1.00D-06.
 No special actions if energy rises.
 SCF Done:  E(RHF) =  -75.4793369701     A.U. after   10 cycles
            NFock= 10  Conv=0.24D-08     -V/T= 2.0062
 Scan completed.

 Summary of the potential surface scan:
   N      B1         A1          SCF    
 ----  ---------  ---------  -----------
    1     0.8000    90.0000    -75.53068
    2     0.8500    90.0000    -75.55482
    3     0.9000    90.0000    -75.56852
    4     0.9500    90.0000    -75.57467
    5     1.0000    90.0000    -75.57537
    6     1.0500    90.0000    -75.57215
    7     1.1000    90.0000    -75.56610
    8     1.1500    90.0000    -75.55800
    9     1.2000    90.0000    -75.54845
   10     1.2500    90.0000    -75.53785
   11     1.3000    90.0000    -75.52655
   12     0.8000    95.0000    -75.53726
   13     0.8500    95.0000    -75.56100
   14     0.9000    95.0000    -75.57428
   15     0.9500    95.0000    -75.57999
   16     1.0000    95.0000    -75.58025
   17     1.0500    95.0000    -75.57659
   18     1.1000    95.0000    -75.57011
   19     1.1500    95.0000    -75.56159
   20     1.2000    95.0000    -75.55164
   21     1.2500    95.0000    -75.54067
   22     1.3000    95.0000    -75.52901
   23     0.8000   100.0000    -75.54200
   24     0.8500   100.0000    -75.56535
   25     0.9000   100.0000    -75.57821
   26     0.9500   100.0000    -75.58351
   27     1.0000   100.0000    -75.58336
   28     1.0500   100.0000    -75.57930
   29     1.1000   100.0000    -75.57242
   30     1.1500   100.0000    -75.56354
   31     1.2000   100.0000    -75.55323
   32     1.2500   100.0000    -75.54193
   33     1.3000   100.0000    -75.52996
   34     0.8000   105.0000    -75.54498
   35     0.8500   105.0000    -75.56794
   36     0.9000   105.0000    -75.58042
   37     0.9500   105.0000    -75.58533
   38     1.0000   105.0000    -75.58480
   39     1.0500   105.0000    -75.58036
   40     1.1000   105.0000    -75.57313
   41     1.1500   105.0000    -75.56391
   42     1.2000   105.0000    -75.55329
   43     1.2500   105.0000    -75.54171
   44     1.3000   105.0000    -75.52948
   45     0.8000   110.0000    -75.54632
   46     0.8500   110.0000    -75.56891
   47     0.9000   110.0000    -75.58102
   48     0.9500   110.0000    -75.58556
   49     1.0000   110.0000    -75.58467
   50     1.0500   110.0000    -75.57989
   51     1.1000   110.0000    -75.57234
   52     1.1500   110.0000    -75.56282
   53     1.2000   110.0000    -75.55193
   54     1.2500   110.0000    -75.54010
   55     1.3000   110.0000    -75.52765
   56     0.8000   115.0000    -75.54616
   57     0.8500   115.0000    -75.56840
   58     0.9000   115.0000    -75.58015
   59     0.9500   115.0000    -75.58434
   60     1.0000   115.0000    -75.58312
   61     1.0500   115.0000    -75.57802
   62     1.1000   115.0000    -75.57018
   63     1.1500   115.0000    -75.56039
   64     1.2000   115.0000    -75.54925
   65     1.2500   115.0000    -75.53720
   66     1.3000   115.0000    -75.52457
   67     0.8000   120.0000    -75.54468
   68     0.8500   120.0000    -75.56656
   69     0.9000   120.0000    -75.57798
   70     0.9500   120.0000    -75.58185
   71     1.0000   120.0000    -75.58031
   72     1.0500   120.0000    -75.57492
   73     1.1000   120.0000    -75.56680
   74     1.1500   120.0000    -75.55675
   75     1.2000   120.0000    -75.54539
   76     1.2500   120.0000    -75.53314
   77     1.3000   120.0000    -75.52034
   78     0.8000   125.0000    -75.54205
   79     0.8500   125.0000    -75.56361
   80     0.9000   125.0000    -75.57470
   81     0.9500   125.0000    -75.57826
   82     1.0000   125.0000    -75.57643
   83     1.0500   125.0000    -75.57075
   84     1.1000   125.0000    -75.56236
   85     1.1500   125.0000    -75.55208
   86     1.2000   125.0000    -75.54049
   87     1.2500   125.0000    -75.52805
   88     1.3000   125.0000    -75.51509
   89     0.8000   130.0000    -75.53851
   90     0.8500   130.0000    -75.55974
   91     0.9000   130.0000    -75.57052
   92     0.9500   130.0000    -75.57378
   93     1.0000   130.0000    -75.57166
   94     1.0500   130.0000    -75.56571
   95     1.1000   130.0000    -75.55705
   96     1.1500   130.0000    -75.54653
   97     1.2000   130.0000    -75.53472
   98     1.2500   130.0000    -75.52209
   99     1.3000   130.0000    -75.50896
  100     0.8000   135.0000    -75.53426
  101     0.8500   135.0000    -75.55519
  102     0.9000   135.0000    -75.56567
  103     0.9500   135.0000    -75.56864
  104     1.0000   135.0000    -75.56623
  105     1.0500   135.0000    -75.56000
  106     1.1000   135.0000    -75.55108
  107     1.1500   135.0000    -75.54030
  108     1.2000   135.0000    -75.52826
  109     1.2500   135.0000    -75.51542
  110     1.3000   135.0000    -75.50212
  111     0.8000   140.0000    -75.52956
  112     0.8500   140.0000    -75.55019
  113     0.9000   140.0000    -75.56039
  114     0.9500   140.0000    -75.56307
  115     1.0000   140.0000    -75.56038
  116     1.0500   140.0000    -75.55386
  117     1.1000   140.0000    -75.54466
  118     1.1500   140.0000    -75.53361
  119     1.2000   140.0000    -75.52133
  120     1.2500   140.0000    -75.50825
  121     1.3000   140.0000    -75.49474
  122     0.8000   145.0000    -75.52464
  123     0.8500   145.0000    -75.54500
  124     0.9000   145.0000    -75.55492
  125     0.9500   145.0000    -75.55732
  126     1.0000   145.0000    -75.55434
  127     1.0500   145.0000    -75.54754
  128     1.1000   145.0000    -75.53805
  129     1.1500   145.0000    -75.52671
  130     1.2000   145.0000    -75.51415
  131     1.2500   145.0000    -75.50082
  132     1.3000   145.0000    -75.48707
  133     0.8000   150.0000    -75.51977
  134     0.8500   150.0000    -75.53986
  135     0.9000   150.0000    -75.54952
  136     0.9500   150.0000    -75.55165
  137     1.0000   150.0000    -75.54839
  138     1.0500   150.0000    -75.54130
  139     1.1000   150.0000    -75.53151
  140     1.1500   150.0000    -75.51986
  141     1.2000   150.0000    -75.50700
  142     1.2500   150.0000    -75.49337
  143     1.3000   150.0000    -75.47934
  144     0.8000   155.0000    -75.51517
  145     0.8500   155.0000    -75.53503
  146     0.9000   155.0000    -75.54444
  147     0.9500   155.0000    -75.54632
  148     1.0000   155.0000    -75.54279
  149     1.0500   155.0000    -75.53540
  150     1.1000   155.0000    -75.52531
  151     1.1500   155.0000    -75.51335
  152     1.2000   155.0000    -75.50016
  153     1.2500   155.0000    -75.48621
  154     1.3000   155.0000    -75.47186
  155     0.8000   160.0000    -75.51107
  156     0.8500   160.0000    -75.53072
  157     0.9000   160.0000    -75.53992
  158     0.9500   160.0000    -75.54156
  159     1.0000   160.0000    -75.53778
  160     1.0500   160.0000    -75.53013
  161     1.1000   160.0000    -75.51975
  162     1.1500   160.0000    -75.50748
  163     1.2000   160.0000    -75.49397
  164     1.2500   160.0000    -75.47968
  165     1.3000   160.0000    -75.46498
  166     0.8000   165.0000    -75.50767
  167     0.8500   165.0000    -75.52714
  168     0.9000   165.0000    -75.53616
  169     0.9500   165.0000    -75.53761
  170     1.0000   165.0000    -75.53361
  171     1.0500   165.0000    -75.52572
  172     1.1000   165.0000    -75.51508
  173     1.1500   165.0000    -75.50254
  174     1.2000   165.0000    -75.48872
  175     1.2500   165.0000    -75.47411
  176     1.3000   165.0000    -75.45906
  177     0.8000   170.0000    -75.50512
  178     0.8500   170.0000    -75.52446
  179     0.9000   170.0000    -75.53334
  180     0.9500   170.0000    -75.53464
  181     1.0000   170.0000    -75.53048
  182     1.0500   170.0000    -75.52241
  183     1.1000   170.0000    -75.51156
  184     1.1500   170.0000    -75.49879
  185     1.2000   170.0000    -75.48472
  186     1.2500   170.0000    -75.46984
  187     1.3000   170.0000    -75.45449
  188     0.8000   175.0000    -75.50354
  189     0.8500   175.0000    -75.52281
  190     0.9000   175.0000    -75.53160
  191     0.9500   175.0000    -75.53281
  192     1.0000   175.0000    -75.52854
  193     1.0500   175.0000    -75.52035
  194     1.1000   175.0000    -75.50937
  195     1.1500   175.0000    -75.49645
  196     1.2000   175.0000    -75.48222
  197     1.2500   175.0000    -75.46715
  198     1.3000   175.0000    -75.45159
  199     0.8000   180.0000    -75.50300
  200     0.8500   180.0000    -75.52224
  201     0.9000   180.0000    -75.53101
  202     0.9500   180.0000    -75.53218
  203     1.0000   180.0000    -75.52788
  204     1.0500   180.0000    -75.51965
  205     1.1000   180.0000    -75.50862
  206     1.1500   180.0000    -75.49565
  207     1.2000   180.0000    -75.48136
  208     1.2500   180.0000    -75.46623
  209     1.3000   180.0000    -75.45060
  210     0.8000   185.0000    -75.50354
  211     0.8500   185.0000    -75.52281
  212     0.9000   185.0000    -75.53160
  213     0.9500   185.0000    -75.53281
  214     1.0000   185.0000    -75.52854
  215     1.0500   185.0000    -75.52035
  216     1.1000   185.0000    -75.50937
  217     1.1500   185.0000    -75.49645
  218     1.2000   185.0000    -75.48222
  219     1.2500   185.0000    -75.46715
  220     1.3000   185.0000    -75.45159
  221     0.8000   190.0000    -75.50512
  222     0.8500   190.0000    -75.52446
  223     0.9000   190.0000    -75.53334
  224     0.9500   190.0000    -75.53464
  225     1.0000   190.0000    -75.53048
  226     1.0500   190.0000    -75.52241
  227     1.1000   190.0000    -75.51156
  228     1.1500   190.0000    -75.49879
  229     1.2000   190.0000    -75.48472
  230     1.2500   190.0000    -75.46984
  231     1.3000   190.0000    -75.45449
  232     0.8000   195.0000    -75.50767
  233     0.8500   195.0000    -75.52714
  234     0.9000   195.0000    -75.53616
  235     0.9500   195.0000    -75.53761
  236     1.0000   195.0000    -75.53361
  237     1.0500   195.0000    -75.52572
  238     1.1000   195.0000    -75.51508
  239     1.1500   195.0000    -75.50254
  240     1.2000   195.0000    -75.48872
  241     1.2500   195.0000    -75.47411
  242     1.3000   195.0000    -75.45906
  243     0.8000   200.0000    -75.51107
  244     0.8500   200.0000    -75.53072
  245     0.9000   200.0000    -75.53992
  246     0.9500   200.0000    -75.54156
  247     1.0000   200.0000    -75.53778
  248     1.0500   200.0000    -75.53013
  249     1.1000   200.0000    -75.51975
  250     1.1500   200.0000    -75.50748
  251     1.2000   200.0000    -75.49397
  252     1.2500   200.0000    -75.47968
  253     1.3000   200.0000    -75.46498
  254     0.8000   205.0000    -75.51517
  255     0.8500   205.0000    -75.53503
  256     0.9000   205.0000    -75.54444
  257     0.9500   205.0000    -75.54632
  258     1.0000   205.0000    -75.54279
  259     1.0500   205.0000    -75.53540
  260     1.1000   205.0000    -75.52531
  261     1.1500   205.0000    -75.51335
  262     1.2000   205.0000    -75.50016
  263     1.2500   205.0000    -75.48621
  264     1.3000   205.0000    -75.47186
  265     0.8000   210.0000    -75.51977
  266     0.8500   210.0000    -75.53986
  267     0.9000   210.0000    -75.54952
  268     0.9500   210.0000    -75.55165
  269     1.0000   210.0000    -75.54839
  270     1.0500   210.0000    -75.54130
  271     1.1000   210.0000    -75.53151
  272     1.1500   210.0000    -75.51986
  273     1.2000   210.0000    -75.50700
  274     1.2500   210.0000    -75.49337
  275     1.3000   210.0000    -75.47934
 ----  ---------  ---------  -----------
  
 1|1|UNPC-SNEHA|Scan|RHF|3-21G|H2O1|SNEHA|28-May-2023|1||# scan hf/3-21
 g geom=connectivity||Rigid Scan of water molecule||0,1|O|H,1,B1|H,1,B2
 ,2,A1||B1=0.8,s,10,0.05|B2=0.96|A1=90.,s,24,5.||Version=IA32W-G09RevD.
 01|HF=-75.5306755,-75.5548185,-75.5685168,-75.5746667,-75.5753707,-75.
 5721487,-75.5660957,-75.5580026,-75.5484458,-75.5378529,-75.5265468,-7
 5.5372577,-75.5609999,-75.5742755,-75.5799891,-75.5802513,-75.5765894,
 -75.5701051,-75.5615947,-75.5516389,-75.5406677,-75.5290058,-75.541996
 2,-75.5653454,-75.5782136,-75.5835135,-75.5833629,-75.5792959,-75.5724
 202,-75.5635364,-75.5532286,-75.5419289,-75.529963,-75.5449776,-75.567
 9432,-75.5804209,-75.5853303,-75.5847957,-75.580357,-75.5731268,-75.56
 39097,-75.5532923,-75.5417084,-75.5294843,-75.5463182,-75.5689115,-75.
 5810165,-75.5855586,-75.5846672,-75.5798872,-75.5723351,-75.562819,-75
 .5519278,-75.5400968,-75.527653,-75.5461616,-75.5683955,-75.5801459,-7
 5.5843424,-75.5831186,-75.5780228,-75.5701753,-75.5603872,-75.5492501,
 -75.5372007,-75.5245668,-75.5446767,-75.5665647,-75.5779775,-75.581847
 7,-75.5803111,-75.5749191,-75.5667952,-75.5567539,-75.5453894,-75.5331
 406,-75.5203364,-75.5420546,-75.5636102,-75.574701,-75.5782603,-75.576
 4253,-75.5707497,-75.5623604,-75.5520752,-75.5404919,-75.528052,-75.51
 50866,-75.5385066,-75.5597428,-75.5705246,-75.5737846,-75.5716601,-75.
 5657067,-75.5570545,-75.5465254,-75.5347215,-75.522088,-75.5089588,-75
 .5342605,-75.5551899,-75.5656739,-75.5686427,-75.5662327,-75.5600009,-
 75.5510809,-75.5402993,-75.5282631,-75.5154224,-75.5021153,-75.5295567
 ,-75.5501925,-75.5603889,-75.5630723,-75.5603775,-75.5538625,-75.54466
 43,-75.5336146,-75.5213261,-75.5082548,-75.494744,-75.524643,-75.54499
 98,-75.5549195,-75.5573235,-75.5543442,-75.54754,-75.5380509,-75.52671
 39,-75.5141478,-75.500815,-75.4870651,-75.5197674,-75.5398631,-75.5495
 2,-75.5516537,-75.5483931,-75.5412965,-75.5315066,-75.5198646,-75.5069
 952,-75.4933672,-75.479337,-75.5151694,-75.535027,-75.5444403,-75.5463
 188,-75.5427875,-75.5354035,-75.5253108,-75.5133543,-75.5001629,-75.48
 6211,-75.4718605,-75.511071,-75.5307197,-75.5399163,-75.5415637,-75.53
 7783,-75.5301292,-75.5197466,-75.5074815,-75.4939655,-75.479676,-75.46
 49785,-75.507667,-75.5271431,-75.5361584,-75.5376099,-75.5336144,-75.5
 257248,-75.5150841,-75.5025388,-75.4887206,-75.4741071,-75.459064,-75.
 5051169,-75.5244638,-75.5333419,-75.5346436,-75.5304821,-75.5224078,-7
 5.5115624,-75.498791,-75.4847239,-75.4698367,-75.4544922,-75.5035387,-
 75.5228054,-75.5315979,-75.5328054,-75.5285388,-75.5203466,-75.5093692
 ,-75.4964503,-75.4822186,-75.4671469,-75.4515941,-75.5030045,-75.52224
 41,-75.5310074,-75.5321828,-75.5278801,-75.5196474,-75.5086244,-75.495
 6542,-75.4813648,-75.4662278,-75.4506004,-75.5035387,-75.5228054,-75.5
 315979,-75.5328054,-75.5285388,-75.5203466,-75.5093692,-75.4964503,-75
 .4822186,-75.4671469,-75.4515941,-75.5051169,-75.5244638,-75.5333419,-
 75.5346436,-75.5304821,-75.5224078,-75.5115624,-75.498791,-75.4847239,
 -75.4698367,-75.4544922,-75.507667,-75.5271431,-75.5361584,-75.5376099
 ,-75.5336144,-75.5257248,-75.5150841,-75.5025388,-75.4887206,-75.47410
 71,-75.459064,-75.511071,-75.5307197,-75.5399163,-75.5415637,-75.53778
 3,-75.5301292,-75.5197466,-75.5074815,-75.4939655,-75.479676,-75.46497
 85,-75.5151694,-75.535027,-75.5444403,-75.5463188,-75.5427875,-75.5354
 035,-75.5253108,-75.5133543,-75.5001629,-75.486211,-75.4718605,-75.519
 7674,-75.5398631,-75.54952,-75.5516537,-75.5483931,-75.5412965,-75.531
 5066,-75.5198646,-75.5069952,-75.4933672,-75.479337|RMSD=2.089e-009,8.
 497e-009,8.893e-009,9.445e-009,9.974e-009,1.015e-009,1.070e-009,1.130e
 -009,9.845e-009,9.367e-009,8.862e-009,1.225e-009,8.754e-009,9.447e-009
 ,1.185e-009,1.254e-009,1.313e-009,1.376e-009,1.441e-009,1.502e-009,1.5
 54e-009,1.595e-009,1.456e-009,9.321e-009,1.286e-009,1.415e-009,1.500e-
 009,1.571e-009,1.643e-009,1.718e-009,1.791e-009,1.852e-009,1.899e-009,
 1.594e-009,1.158e-009,1.380e-009,1.538e-009,1.646e-009,1.730e-009,1.81
 2e-009,1.900e-009,1.988e-009,2.072e-009,2.144e-009,1.646e-009,1.134e-0
 09,1.371e-009,1.556e-009,1.687e-009,1.787e-009,1.877e-009,1.971e-009,2
 .070e-009,2.170e-009,2.267e-009,1.618e-009,1.064e-009,1.298e-009,1.499
 e-009,1.652e-009,1.769e-009,1.866e-009,1.960e-009,2.058e-009,2.160e-00
 9,2.267e-009,1.509e-009,9.891e-010,1.200e-009,1.404e-009,1.576e-009,1.
 711e-009,1.819e-009,1.911e-009,1.999e-009,2.088e-009,2.184e-009,1.315e
 -009,9.323e-010,1.108e-009,1.304e-009,1.489e-009,1.644e-009,1.767e-009
 ,1.863e-009,1.940e-009,2.009e-009,2.078e-009,1.054e-009,9.139e-010,1.0
 43e-009,1.224e-009,1.416e-009,1.591e-009,1.734e-009,1.842e-009,1.916e-
 009,1.966e-009,2.004e-009,7.627e-010,9.610e-010,1.032e-009,1.189e-009,
 1.379e-009,1.566e-009,1.730e-009,1.856e-009,1.940e-009,1.984e-009,1.99
 8e-009,8.609e-009,1.110e-009,1.112e-009,1.234e-009,1.407e-009,1.592e-0
 09,1.765e-009,1.908e-009,2.010e-009,2.064e-009,2.074e-009,7.144e-009,1
 .398e-009,1.322e-009,1.402e-009,1.548e-009,1.715e-009,1.878e-009,2.021
 e-009,2.131e-009,2.200e-009,2.223e-009,6.570e-009,1.861e-009,1.694e-00
 9,1.738e-009,1.865e-009,2.020e-009,2.170e-009,2.293e-009,2.378e-009,2.
 428e-009,2.446e-009,7.181e-009,2.526e-009,2.264e-009,2.281e-009,2.421e
 -009,2.610e-009,2.796e-009,2.935e-009,2.991e-009,2.961e-009,2.880e-009
 ,8.589e-009,3.345e-009,3.055e-009,3.073e-009,3.271e-009,3.565e-009,3.8
 88e-009,4.161e-009,4.304e-009,4.256e-009,4.030e-009,1.519e-009,4.018e-
 009,3.992e-009,4.106e-009,4.429e-009,4.906e-009,5.467e-009,6.022e-009,
 6.455e-009,6.644e-009,6.511e-009,1.531e-009,3.852e-009,4.603e-009,5.06
 0e-009,5.615e-009,6.311e-009,7.114e-009,7.970e-009,8.824e-009,9.595e-0
 09,5.218e-010,1.578e-009,6.687e-009,9.978e-009,4.417e-009,5.142e-009,5
 .810e-009,6.448e-009,7.098e-009,7.856e-009,8.867e-009,7.893e-010,1.821
 e-009,4.033e-009,3.904e-009,3.923e-009,3.970e-009,3.960e-009,3.864e-00
 9,3.685e-009,3.445e-009,3.174e-009,2.897e-009,3.404e-009,6.687e-009,9.
 978e-009,4.417e-009,5.142e-009,5.810e-009,6.448e-009,7.098e-009,7.856e
 -009,8.867e-009,7.893e-010,2.650e-009,3.852e-009,4.603e-009,5.060e-009
 ,5.615e-009,6.311e-009,7.114e-009,7.970e-009,8.824e-009,9.595e-009,5.2
 18e-010,1.723e-009,4.018e-009,3.992e-009,4.106e-009,4.429e-009,4.906e-
 009,5.467e-009,6.022e-009,6.455e-009,6.644e-009,6.511e-009,1.527e-009,
 3.345e-009,3.055e-009,3.073e-009,3.271e-009,3.565e-009,3.888e-009,4.16
 1e-009,4.304e-009,4.256e-009,4.030e-009,1.375e-009,2.526e-009,2.264e-0
 09,2.281e-009,2.421e-009,2.610e-009,2.796e-009,2.935e-009,2.991e-009,2
 .961e-009,2.880e-009,1.275e-009,1.861e-009,1.694e-009,1.738e-009,1.865
 e-009,2.020e-009,2.170e-009,2.293e-009,2.378e-009,2.428e-009,2.446e-00
 9|PG=CS [SG(H2O1)]||@


 A warm smile is the universal language of kindness.
                             -- William Arthur Ward
 Job cpu time:       0 days  0 hours  1 minutes 47.0 seconds.
 File lengths (MBytes):  RWF=      5 Int=      0 D2E=      0 Chk=      3 Scr=      1
 Normal termination of Gaussian 09 at Sun May 28 15:21:36 2023.
